
     Program PWSCF v.6.7GPU starts on 16Feb2022 at  0:32:30 

     This program is part of the open-source Quantum ESPRESSO suite
     for quantum simulation of materials; please cite
         "P. Giannozzi et al., J. Phys.:Condens. Matter 21 395502 (2009);
         "P. Giannozzi et al., J. Phys.:Condens. Matter 29 465901 (2017);
         "P. Giannozzi et al., J. Chem. Phys. 152 154105 (2020);
          URL http://www.quantum-espresso.org", 
     in publications or presentations arising from this work. More details at
     http://www.quantum-espresso.org/quote

     Parallel version (MPI), running on    16 processors

     MPI processes distributed on     1 nodes
     R & G space division:  proc/nbgrp/npool/nimage =      16
     Reading input from /storage/coda1/p-amedford6/0/bchen380/B22/O2_B/qe_3983489.sched-torque.pace.gatech.edu/pw.inp
Warning: card &CELL ignored
Warning: card   CELL_DYNAMICS='IPI', ignored
Warning: card / ignored

     Current dimensions of program PWSCF are:
     Max number of different atomic species (ntypx) = 10
     Max number of k-points (npk) =  40000
     Max angular momentum in pseudopotentials (lmaxx) =  3
     Message from routine cell_base_init:
     DEPRECATED: use true lattice parameter, not A to a.u. conversion factor
     file O.UPF: wavefunction(s)  2P renormalized

     **************************************************************************
     Initializing libbeef V0.1.2 with the BEEF-vdW functional.
     Citation: Wellendorff et al., PRB 85, 235149 (2012).
     **************************************************************************


     IMPORTANT: XC functional enforced from input :
     Exchange-correlation= BEEF-VDW
                           (   1   4  43  14   2   0   0)
     Any further DFT definition will be discarded
     Please, verify this is what you really want


     Subspace diagonalization in iterative solution of the eigenvalue problem:
     one sub-group per band group will be used
     scalapack distributed-memory algorithm (size of sub-group:  4*  4 procs)

  @ DRIVER MODE: Connecting to 
 qe_1064200_3983489.sched-torque.pace.gatech.edu0gfnjjau_scratch
  using UNIX socket
  @ DRIVER MODE: Message from server: STATUS
  @ DRIVER MODE: Message from server: INIT
  @ DRIVER MODE: Receiving replica           0          -1
  @ DRIVER MODE: Receiving encoded integer          25
  @ DRIVER MODE:  SCF:  T  FORCE:  T  STRESS:  F  VC:  F  ENSEMBLE:  F
  @ DRIVER MODE:  SCF:  T  FORCE:  T  STRESS:  F  VC:  F  ENSEMBLE:  F
 
     Parallelization info
     --------------------
     sticks:   dense  smooth     PW     G-vecs:    dense   smooth      PW
     Min         256     102     28                49498    12526    1868
     Max         257     103     29                49510    12535    1881
     Sum        4097    1637    459               792059   200495   30031
 
     Using Slab Decomposition
 


     bravais-lattice index     =            0
     lattice parameter (alat)  =       1.8897  a.u.
     unit-cell volume          =    6658.9804 (a.u.)^3
     number of atoms/cell      =           50
     number of atomic types    =            3
     number of electrons       =       393.00
     number of Kohn-Sham states=          206
     kinetic-energy cutoff     =      36.7493  Ry
     charge density cutoff     =     367.4932  Ry
     scf convergence threshold =      7.3E-08
     mixing beta               =       0.0500
     number of iterations used =            8  plain     mixing
     Exchange-correlation= BEEF-VDW
                           (   1   4  43  14   2   0   0)

     celldm(1)=   1.889726  celldm(2)=   0.000000  celldm(3)=   0.000000
     celldm(4)=   0.000000  celldm(5)=   0.000000  celldm(6)=   0.000000

     crystal axes: (cart. coord. in units of alat)
               a(1) = (   6.579727   0.000000   0.000000 )  
               a(2) = (  -0.000775   5.961596   0.000000 )  
               a(3) = (   0.000000   0.000000  25.155947 )  

     reciprocal axes: (cart. coord. in units 2 pi/alat)
               b(1) = (  0.151982  0.000020  0.000000 )  
               b(2) = (  0.000000  0.167740  0.000000 )  
               b(3) = (  0.000000  0.000000  0.039752 )  


     PseudoPot. # 1 for Ti read from file:
     /storage/coda1/p-amedford6/0/shared/rich_project_chbe-medford/medford-share/data/pseudos_module/espresso/esp_pseudos_old/Ti.UPF
     MD5 check sum: 88a00a6731bd790ddea75d31a80cb452
     Pseudo is Ultrasoft + core correction, Zval = 12.0
     Generated by new atomic code, or converted to UPF format
     Using radial grid of  851 points,  6 beta functions with: 
                l(1) =   0
                l(2) =   0
                l(3) =   1
                l(4) =   1
                l(5) =   2
                l(6) =   2
     Q(r) pseudized with  6 coefficients,  rinner =    1.000   1.000   1.000
                                                       1.000   1.000

     PseudoPot. # 2 for O  read from file:
     /storage/coda1/p-amedford6/0/shared/rich_project_chbe-medford/medford-share/data/pseudos_module/espresso/esp_pseudos_old/O.UPF
     MD5 check sum: 0234752ac141de4415c5fc33072bef88
     Pseudo is Projector augmented-wave + core cor, Zval =  6.0
     Generated using "atomic" code by A. Dal Corso  v.5.0.99 svn rev. 10869
     Shape of augmentation charge: BESSEL
     Using radial grid of 1095 points,  4 beta functions with: 
                l(1) =   0
                l(2) =   0
                l(3) =   1
                l(4) =   1
     Q(r) pseudized with 0 coefficients 


     PseudoPot. # 3 for B  read from file:
     /storage/coda1/p-amedford6/0/shared/rich_project_chbe-medford/medford-share/data/pseudos_module/espresso/esp_pseudos_old/B.UPF
     MD5 check sum: cc6de2960df11db49a60e589f9ebb39b
     Pseudo is Ultrasoft + core correction, Zval =  3.0
     Generated by new atomic code, or converted to UPF format
     Using radial grid of  781 points,  4 beta functions with: 
                l(1) =   0
                l(2) =   0
                l(3) =   1
                l(4) =   1
     Q(r) pseudized with  8 coefficients,  rinner =    1.100   1.100   1.100


     atomic species   valence    mass     pseudopotential
        Ti1           12.00    47.86700     Ti( 1.00)
        O1             6.00    15.99900     O ( 1.00)
        B1             3.00    10.81000     B ( 1.00)

     Starting magnetic structure 
     atomic species   magnetization
        Ti1          0.000
        O1           0.000
        B1           0.000

     No symmetry found



   Cartesian axes

     site n.     atom                  positions (alat units)
         1           Ti1 tau(   1) = (   0.0004258   2.9801865   6.0000000  )
         2           Ti1 tau(   2) = (   3.2906075   1.4906267   6.0002472  )
         3           O1  tau(   3) = (   0.0006271   0.0005054   7.9858123  )
         4           O1  tau(   4) = (   3.2906025   0.0005020   7.3038282  )
         5           O1  tau(   5) = (   4.5942328   1.4918067   9.2879030  )
         6           O1  tau(   6) = (   1.9868534   1.4903216   9.2879459  )
         7           Ti1 tau(   7) = (   3.2905683   2.9818392   9.1597947  )
         8           Ti1 tau(   8) = (   0.0009689   1.5052867   9.3302970  )
         9           O1  tau(   9) = (   3.2907689   0.0016648  11.3563317  )
        10           O1  tau(  10) = (   0.0007044   0.0001637  10.5878211  )
        11           O1  tau(  11) = (   1.3004573   1.4911895  12.6196604  )
        12           O1  tau(  12) = (   5.2803146   1.4910465  12.6198809  )
        13           Ti1 tau(  13) = (   0.0003545   2.9813121  12.7572432  )
        14           Ti1 tau(  14) = (   3.2903971   1.4912328  12.5002874  )
        15           O1  tau(  15) = (  -0.0002320   5.9576404  14.5977444  )
        16           O1  tau(  16) = (   3.2901645   0.0058045  13.9855309  )
        17           O1  tau(  17) = (   4.5492778   1.5221801  16.1329724  )
        18           O1  tau(  18) = (   2.0311275   1.5222091  16.1330501  )
        19           Ti1 tau(  19) = (   3.2902041   2.9895352  15.7368220  )
        20           Ti1 tau(  20) = (   0.0001478   1.4235607  15.9669019  )
        21           O1  tau(  21) = (   3.2904802   0.0005063   4.7018136  )
        22           O1  tau(  22) = (   0.0000052   5.9613278  17.1620205  )
        23           O1  tau(  23) = (   1.3043587   1.4918075   6.0039043  )
        24           O1  tau(  24) = (   5.2767064   1.4903225   6.0039473  )
        25           Ti1 tau(  25) = (   0.0000382   5.9609847   6.0000000  )
        26           Ti1 tau(  26) = (   3.2902200   4.4714249   6.0002472  )
        27           O1  tau(  27) = (   0.0002396   2.9813036   7.9858123  )
        28           O1  tau(  28) = (   3.2902150   2.9813002   7.3038282  )
        29           O1  tau(  29) = (   4.5938453   4.4726049   9.2879030  )
        30           O1  tau(  30) = (   1.9864658   4.4711199   9.2879459  )
        31           Ti1 tau(  31) = (   3.2909982   0.0016570   9.1583503  )
        32           Ti1 tau(  32) = (   0.0005865   4.4518293   9.3323505  )
        33           O1  tau(  33) = (   3.2903422   2.9801403  11.3468332  )
        34           O1  tau(  34) = (   0.0003571   2.9798178  10.5649370  )
        35           O1  tau(  35) = (   1.3005412   4.4692167  12.6173387  )
        36           O1  tau(  36) = (   5.2794693   4.4690741  12.6175999  )
        37           Ti1 tau(  37) = (  -0.0000806   5.9612980  12.5816508  )
        38           Ti1 tau(  38) = (   3.2900041   4.4658170  12.4917948  )
        39           O1  tau(  39) = (   0.0004188   2.9814100  14.6485654  )
        40           O1  tau(  40) = (   3.2900918   2.9860882  13.9373905  )
        41           O1  tau(  41) = (   4.5492228   4.4522151  16.1330783  )
        42           O1  tau(  42) = (   2.0303863   4.4519659  16.1333203  )
        43           Ti1 tau(  43) = (   3.2899546   0.0061948  15.7807570  )
        44           Ti1 tau(  44) = (  -0.0001637   4.5606593  15.9768108  )
        45           O1  tau(  45) = (   3.2900926   2.9813045   4.7018136  )
        46           B1  tau(  46) = (   6.5792260   2.9590799  17.8640153  )
        47           O1  tau(  47) = (   1.3039711   4.4726057   6.0039043  )
        48           O1  tau(  48) = (   5.2763189   4.4711207   6.0039473  )
        49           O1  tau(  49) = (   6.3491669   2.7825235  19.0640153  )
        50           O1  tau(  50) = (   6.2271734   2.6017940  20.1640153  )

     number of k points=    10  Fermi-Dirac smearing, width (Ry)=  0.0007
                       cart. coord. in units 2pi/alat
        k(    1) = (   0.0000000   0.0000000   0.0000000), wk =   0.0625000
        k(    2) = (   0.0000000   0.0419351   0.0000000), wk =   0.1250000
        k(    3) = (   0.0000000  -0.0838702   0.0000000), wk =   0.0625000
        k(    4) = (   0.0379955   0.0000049   0.0000000), wk =   0.1250000
        k(    5) = (   0.0379955   0.0419400   0.0000000), wk =   0.1250000
        k(    6) = (   0.0379955  -0.0838652   0.0000000), wk =   0.1250000
        k(    7) = (   0.0379955  -0.0419301   0.0000000), wk =   0.1250000
        k(    8) = (  -0.0759910  -0.0000099   0.0000000), wk =   0.0625000
        k(    9) = (  -0.0759910   0.0419252   0.0000000), wk =   0.1250000
        k(   10) = (  -0.0759910  -0.0838800   0.0000000), wk =   0.0625000

     Dense  grid:   792059 G-vectors     FFT dimensions: (  75,  72, 300)

     Smooth grid:   200495 G-vectors     FFT dimensions: (  48,  45, 192)

     Estimated max dynamical RAM per process >     385.45 MB

     Estimated total dynamical RAM >       6.02 GB

     Check: negative core charge=   -0.000008
     Generating pointlists ...
     new r_m :   0.7405 (alat units)  1.3994 (a.u.) for type    1
     new r_m :   0.4626 (alat units)  0.8741 (a.u.) for type    2
     new r_m :   0.5092 (alat units)  0.9623 (a.u.) for type    3

     Initial potential from superposition of free atoms

     starting charge  376.99896, renormalised to  393.00000

     negative rho (up, down):  1.160E-02 1.160E-02


     %%%%%%%%%%%%%%%%%%%%%%%%%%%%%%%%%%%%%%%%%%%%%%%%%%%%%%%%%%%%%%%%%%%%%%%%
     %                                                                      %
     % You are using vdW-DF, which was implemented by the Thonhauser group. %
     % Please cite the following two papers that made this development      %
     % possible and the two reviews that describe the various versions:     %
     %                                                                      %
     %   T. Thonhauser et al., PRL 115, 136402 (2015).                      %
     %   T. Thonhauser et al., PRB 76, 125112 (2007).                       %
     %   K. Berland et al., Rep. Prog. Phys. 78, 066501 (2015).             %
     %   D.C. Langreth et al., J. Phys.: Condens. Matter 21, 084203 (2009). %
     %                                                                      %
     %                                                                      %
     % If you are calculating the stress with vdW-DF, please also cite:     %
     %                                                                      %
     %   R. Sabatini et al., J. Phys.: Condens. Matter 24, 424209 (2012).   %
     %                                                                      %
     %%%%%%%%%%%%%%%%%%%%%%%%%%%%%%%%%%%%%%%%%%%%%%%%%%%%%%%%%%%%%%%%%%%%%%%%


 
     Adding external electric field

     Computed dipole along edir(3) : 
        Dipole               -7.9713 Ry au,        -20.2611 Debye
        Dipole field         -0.0150 Ry au, 
 
        Potential amp.        1.3945 Ry
        Total length         46.3494 bohr
 
 
     Adding external electric field

     Computed dipole along edir(3) : 
        Dipole               -7.9713 Ry au,        -20.2611 Debye
        Dipole field         -0.0150 Ry au, 
 
        Potential amp.        1.3945 Ry
        Total length         46.3494 bohr
 
     Starting wfcs are  296 randomized atomic wfcs
     Checking if some PAW data can be deallocated... 
  @ DRIVER MODE: Message from server: STATUS
  @ DRIVER MODE: Message from server: POSDATA
  @ DRIVER MODE: Reading and sharing cell 
  @ DRIVER MODE: Reading and sharing positions 
  @ DRIVER MODE: Received positions 

     total cpu time spent up to now is       43.7 secs

     Self-consistent Calculation

     iteration #  1     ecut=    36.75 Ry     beta= 0.05
     Davidson diagonalization with overlap
     ethr =  1.00E-02,  avg # of iterations =  2.0

     negative rho (up, down):  1.070E-02 1.070E-02
 
     Adding external electric field

     Computed dipole along edir(3) : 
        Dipole               31.3384 Ry au,         79.6543 Debye
        Dipole field          0.0591 Ry au, 
 
        Potential amp.       -5.4822 Ry
        Total length         46.3494 bohr
 
 
     Adding external electric field

     Computed dipole along edir(3) : 
        Dipole               31.3384 Ry au,         79.6543 Debye
        Dipole field          0.0591 Ry au, 
 
        Potential amp.       -5.4822 Ry
        Total length         46.3494 bohr
 

     total cpu time spent up to now is       65.8 secs

     total energy              =   -3112.56141066 Ry
     estimated scf accuracy    <    2463.63531515 Ry

     total magnetization       =    -0.00 Bohr mag/cell
     absolute magnetization    =     0.09 Bohr mag/cell

     iteration #  2     ecut=    36.75 Ry     beta= 0.05
     Davidson diagonalization with overlap
     ethr =  1.00E-02,  avg # of iterations = 14.6

     negative rho (up, down):  1.019E-02 1.019E-02
 
     Adding external electric field

     Computed dipole along edir(3) : 
        Dipole               -3.4282 Ry au,         -8.7136 Debye
        Dipole field         -0.0065 Ry au, 
 
        Potential amp.        0.5997 Ry
        Total length         46.3494 bohr
 
 
     Adding external electric field

     Computed dipole along edir(3) : 
        Dipole               -3.4282 Ry au,         -8.7136 Debye
        Dipole field         -0.0065 Ry au, 
 
        Potential amp.        0.5997 Ry
        Total length         46.3494 bohr
 

     total cpu time spent up to now is      196.6 secs

     total energy              =   -2971.01254999 Ry
     estimated scf accuracy    <   47531.95048374 Ry

     total magnetization       =     0.14 Bohr mag/cell
     absolute magnetization    =     0.68 Bohr mag/cell

     iteration #  3     ecut=    36.75 Ry     beta= 0.05
     Davidson diagonalization with overlap
     ethr =  1.00E-02,  avg # of iterations = 14.7

     negative rho (up, down):  1.007E-02 1.007E-02
 
     Adding external electric field

     Computed dipole along edir(3) : 
        Dipole               -4.7445 Ry au,        -12.0592 Debye
        Dipole field         -0.0090 Ry au, 
 
        Potential amp.        0.8300 Ry
        Total length         46.3494 bohr
 
 
     Adding external electric field

     Computed dipole along edir(3) : 
        Dipole               -4.7445 Ry au,        -12.0592 Debye
        Dipole field         -0.0090 Ry au, 
 
        Potential amp.        0.8300 Ry
        Total length         46.3494 bohr
 

     total cpu time spent up to now is      391.7 secs

     total energy              =   -3321.18207688 Ry
     estimated scf accuracy    <    1992.21695847 Ry

     total magnetization       =    -0.56 Bohr mag/cell
     absolute magnetization    =     0.75 Bohr mag/cell

     iteration #  4     ecut=    36.75 Ry     beta= 0.05
     Davidson diagonalization with overlap
     ethr =  1.00E-02,  avg # of iterations =  4.3

     negative rho (up, down):  1.006E-02 1.007E-02
 
     Adding external electric field

     Computed dipole along edir(3) : 
        Dipole               -6.3967 Ry au,        -16.2588 Debye
        Dipole field         -0.0121 Ry au, 
 
        Potential amp.        1.1190 Ry
        Total length         46.3494 bohr
 
 
     Adding external electric field

     Computed dipole along edir(3) : 
        Dipole               -6.3967 Ry au,        -16.2588 Debye
        Dipole field         -0.0121 Ry au, 
 
        Potential amp.        1.1190 Ry
        Total length         46.3494 bohr
 

     total cpu time spent up to now is      411.9 secs

     total energy              =   -3296.89546187 Ry
     estimated scf accuracy    <    1715.12887067 Ry

     total magnetization       =     0.34 Bohr mag/cell
     absolute magnetization    =     0.58 Bohr mag/cell

     iteration #  5     ecut=    36.75 Ry     beta= 0.05
     Davidson diagonalization with overlap
     ethr =  1.00E-02,  avg # of iterations =  9.6

     negative rho (up, down):  1.009E-02 1.008E-02
 
     Adding external electric field

     Computed dipole along edir(3) : 
        Dipole               -5.2220 Ry au,        -13.2731 Debye
        Dipole field         -0.0099 Ry au, 
 
        Potential amp.        0.9135 Ry
        Total length         46.3494 bohr
 
 
     Adding external electric field

     Computed dipole along edir(3) : 
        Dipole               -5.2220 Ry au,        -13.2731 Debye
        Dipole field         -0.0099 Ry au, 
 
        Potential amp.        0.9135 Ry
        Total length         46.3494 bohr
 

     total cpu time spent up to now is      527.3 secs

     total energy              =   -3336.07470604 Ry
     estimated scf accuracy    <      70.30785323 Ry

     total magnetization       =    -0.15 Bohr mag/cell
     absolute magnetization    =     0.30 Bohr mag/cell

     iteration #  6     ecut=    36.75 Ry     beta= 0.05
     Davidson diagonalization with overlap
     ethr =  1.00E-02,  avg # of iterations =  1.6

     negative rho (up, down):  1.065E-02 1.065E-02
 
     Adding external electric field

     Computed dipole along edir(3) : 
        Dipole               -0.4901 Ry au,         -1.2458 Debye
        Dipole field         -0.0009 Ry au, 
 
        Potential amp.        0.0857 Ry
        Total length         46.3494 bohr
 
 
     Adding external electric field

     Computed dipole along edir(3) : 
        Dipole               -0.4901 Ry au,         -1.2458 Debye
        Dipole field         -0.0009 Ry au, 
 
        Potential amp.        0.0857 Ry
        Total length         46.3494 bohr
 

     total cpu time spent up to now is      570.5 secs

     total energy              =   -3329.00165935 Ry
     estimated scf accuracy    <      61.12477262 Ry

     total magnetization       =    -0.12 Bohr mag/cell
     absolute magnetization    =     0.31 Bohr mag/cell

     iteration #  7     ecut=    36.75 Ry     beta= 0.05
     Davidson diagonalization with overlap
     ethr =  1.00E-02,  avg # of iterations =  7.0

     negative rho (up, down):  1.058E-02 1.058E-02
 
     Adding external electric field

     Computed dipole along edir(3) : 
        Dipole               -1.5335 Ry au,         -3.8979 Debye
        Dipole field         -0.0029 Ry au, 
 
        Potential amp.        0.2683 Ry
        Total length         46.3494 bohr
 
 
     Adding external electric field

     Computed dipole along edir(3) : 
        Dipole               -1.5335 Ry au,         -3.8979 Debye
        Dipole field         -0.0029 Ry au, 
 
        Potential amp.        0.2683 Ry
        Total length         46.3494 bohr
 

     total cpu time spent up to now is      646.1 secs

     total energy              =   -3333.95067704 Ry
     estimated scf accuracy    <     384.89543197 Ry

     total magnetization       =     0.03 Bohr mag/cell
     absolute magnetization    =     0.66 Bohr mag/cell

     iteration #  8     ecut=    36.75 Ry     beta= 0.05
     Davidson diagonalization with overlap
     ethr =  1.00E-02,  avg # of iterations =  1.9

     negative rho (up, down):  1.062E-02 1.062E-02
 
     Adding external electric field

     Computed dipole along edir(3) : 
        Dipole               -1.8590 Ry au,         -4.7252 Debye
        Dipole field         -0.0035 Ry au, 
 
        Potential amp.        0.3252 Ry
        Total length         46.3494 bohr
 
 
     Adding external electric field

     Computed dipole along edir(3) : 
        Dipole               -1.8590 Ry au,         -4.7252 Debye
        Dipole field         -0.0035 Ry au, 
 
        Potential amp.        0.3252 Ry
        Total length         46.3494 bohr
 

     total cpu time spent up to now is      689.0 secs

     total energy              =   -3334.77789792 Ry
     estimated scf accuracy    <     138.43420169 Ry

     total magnetization       =    -0.37 Bohr mag/cell
     absolute magnetization    =     0.88 Bohr mag/cell

     iteration #  9     ecut=    36.75 Ry     beta= 0.05
     Davidson diagonalization with overlap
     ethr =  1.00E-02,  avg # of iterations =  1.1

     negative rho (up, down):  1.062E-02 1.061E-02
 
     Adding external electric field

     Computed dipole along edir(3) : 
        Dipole               -1.6409 Ry au,         -4.1708 Debye
        Dipole field         -0.0031 Ry au, 
 
        Potential amp.        0.2871 Ry
        Total length         46.3494 bohr
 
 
     Adding external electric field

     Computed dipole along edir(3) : 
        Dipole               -1.6409 Ry au,         -4.1708 Debye
        Dipole field         -0.0031 Ry au, 
 
        Potential amp.        0.2871 Ry
        Total length         46.3494 bohr
 

     total cpu time spent up to now is      706.0 secs

     total energy              =   -3335.20810293 Ry
     estimated scf accuracy    <     133.23541655 Ry

     total magnetization       =    -0.20 Bohr mag/cell
     absolute magnetization    =     0.76 Bohr mag/cell

     iteration # 10     ecut=    36.75 Ry     beta= 0.05
     Davidson diagonalization with overlap
     ethr =  1.00E-02,  avg # of iterations =  1.0

     negative rho (up, down):  1.106E-02 1.109E-02
 
     Adding external electric field

     Computed dipole along edir(3) : 
        Dipole                0.1944 Ry au,          0.4942 Debye
        Dipole field          0.0004 Ry au, 
 
        Potential amp.       -0.0340 Ry
        Total length         46.3494 bohr
 
 
     Adding external electric field

     Computed dipole along edir(3) : 
        Dipole                0.1944 Ry au,          0.4942 Debye
        Dipole field          0.0004 Ry au, 
 
        Potential amp.       -0.0340 Ry
        Total length         46.3494 bohr
 

     total cpu time spent up to now is      723.0 secs

     total energy              =   -3339.53744718 Ry
     estimated scf accuracy    <     185.66908305 Ry

     total magnetization       =    -0.40 Bohr mag/cell
     absolute magnetization    =     0.81 Bohr mag/cell

     iteration # 11     ecut=    36.75 Ry     beta= 0.05
     Davidson diagonalization with overlap
     ethr =  1.00E-02,  avg # of iterations =  7.7

     negative rho (up, down):  1.094E-02 1.089E-02
 
     Adding external electric field

     Computed dipole along edir(3) : 
        Dipole               -1.9501 Ry au,         -4.9568 Debye
        Dipole field         -0.0037 Ry au, 
 
        Potential amp.        0.3411 Ry
        Total length         46.3494 bohr
 
 
     Adding external electric field

     Computed dipole along edir(3) : 
        Dipole               -1.9501 Ry au,         -4.9568 Debye
        Dipole field         -0.0037 Ry au, 
 
        Potential amp.        0.3411 Ry
        Total length         46.3494 bohr
 

     total cpu time spent up to now is      745.3 secs

     total energy              =   -3330.59518240 Ry
     estimated scf accuracy    <    1042.98945186 Ry

     total magnetization       =    -1.11 Bohr mag/cell
     absolute magnetization    =     1.60 Bohr mag/cell

     iteration # 12     ecut=    36.75 Ry     beta= 0.05
     Davidson diagonalization with overlap
     ethr =  1.00E-02,  avg # of iterations =  1.7

     negative rho (up, down):  1.123E-02 1.110E-02
 
     Adding external electric field

     Computed dipole along edir(3) : 
        Dipole               -2.4583 Ry au,         -6.2484 Debye
        Dipole field         -0.0046 Ry au, 
 
        Potential amp.        0.4300 Ry
        Total length         46.3494 bohr
 
 
     Adding external electric field

     Computed dipole along edir(3) : 
        Dipole               -2.4583 Ry au,         -6.2484 Debye
        Dipole field         -0.0046 Ry au, 
 
        Potential amp.        0.4300 Ry
        Total length         46.3494 bohr
 

     total cpu time spent up to now is      768.0 secs

     total energy              =   -3325.63808660 Ry
     estimated scf accuracy    <     265.03086503 Ry

     total magnetization       =     0.41 Bohr mag/cell
     absolute magnetization    =     1.73 Bohr mag/cell

     iteration # 13     ecut=    36.75 Ry     beta= 0.05
     Davidson diagonalization with overlap
     ethr =  1.00E-02,  avg # of iterations =  6.8

     negative rho (up, down):  1.120E-02 1.112E-02
 
     Adding external electric field

     Computed dipole along edir(3) : 
        Dipole               -1.3406 Ry au,         -3.4075 Debye
        Dipole field         -0.0025 Ry au, 
 
        Potential amp.        0.2345 Ry
        Total length         46.3494 bohr
 
 
     Adding external electric field

     Computed dipole along edir(3) : 
        Dipole               -1.3406 Ry au,         -3.4075 Debye
        Dipole field         -0.0025 Ry au, 
 
        Potential amp.        0.2345 Ry
        Total length         46.3494 bohr
 

     total cpu time spent up to now is      793.3 secs

     total energy              =   -3332.80478316 Ry
     estimated scf accuracy    <       4.85752852 Ry

     total magnetization       =    -0.56 Bohr mag/cell
     absolute magnetization    =     1.00 Bohr mag/cell

     iteration # 14     ecut=    36.75 Ry     beta= 0.05
     Davidson diagonalization with overlap
     ethr =  1.24E-03,  avg # of iterations =  8.9

     negative rho (up, down):  1.118E-02 1.114E-02
 
     Adding external electric field

     Computed dipole along edir(3) : 
        Dipole               -0.6382 Ry au,         -1.6221 Debye
        Dipole field         -0.0012 Ry au, 
 
        Potential amp.        0.1116 Ry
        Total length         46.3494 bohr
 
 
     Adding external electric field

     Computed dipole along edir(3) : 
        Dipole               -0.6382 Ry au,         -1.6221 Debye
        Dipole field         -0.0012 Ry au, 
 
        Potential amp.        0.1116 Ry
        Total length         46.3494 bohr
 

     total cpu time spent up to now is      817.6 secs

     total energy              =   -3333.05381736 Ry
     estimated scf accuracy    <       3.63849920 Ry

     total magnetization       =    -0.21 Bohr mag/cell
     absolute magnetization    =     0.41 Bohr mag/cell

     iteration # 15     ecut=    36.75 Ry     beta= 0.05
     Davidson diagonalization with overlap
     ethr =  9.26E-04,  avg # of iterations =  5.5

     negative rho (up, down):  1.126E-02 1.123E-02
 
     Adding external electric field

     Computed dipole along edir(3) : 
        Dipole               -1.0258 Ry au,         -2.6074 Debye
        Dipole field         -0.0019 Ry au, 
 
        Potential amp.        0.1795 Ry
        Total length         46.3494 bohr
 
 
     Adding external electric field

     Computed dipole along edir(3) : 
        Dipole               -1.0258 Ry au,         -2.6074 Debye
        Dipole field         -0.0019 Ry au, 
 
        Potential amp.        0.1795 Ry
        Total length         46.3494 bohr
 

     total cpu time spent up to now is      850.0 secs

     total energy              =   -3333.20784196 Ry
     estimated scf accuracy    <      59.97638395 Ry

     total magnetization       =    -0.33 Bohr mag/cell
     absolute magnetization    =     0.57 Bohr mag/cell

     iteration # 16     ecut=    36.75 Ry     beta= 0.05
     Davidson diagonalization with overlap
     ethr =  9.26E-04,  avg # of iterations =  5.8

     negative rho (up, down):  1.132E-02 1.129E-02
 
     Adding external electric field

     Computed dipole along edir(3) : 
        Dipole               -1.0345 Ry au,         -2.6293 Debye
        Dipole field         -0.0020 Ry au, 
 
        Potential amp.        0.1810 Ry
        Total length         46.3494 bohr
 
 
     Adding external electric field

     Computed dipole along edir(3) : 
        Dipole               -1.0345 Ry au,         -2.6293 Debye
        Dipole field         -0.0020 Ry au, 
 
        Potential amp.        0.1810 Ry
        Total length         46.3494 bohr
 

     total cpu time spent up to now is      919.5 secs

     total energy              =   -3333.15015944 Ry
     estimated scf accuracy    <      83.70152661 Ry

     total magnetization       =    -0.18 Bohr mag/cell
     absolute magnetization    =     0.66 Bohr mag/cell

     iteration # 17     ecut=    36.75 Ry     beta= 0.05
     Davidson diagonalization with overlap
     ethr =  9.26E-04,  avg # of iterations =  1.1

     negative rho (up, down):  1.133E-02 1.129E-02
 
     Adding external electric field

     Computed dipole along edir(3) : 
        Dipole               -1.5199 Ry au,         -3.8631 Debye
        Dipole field         -0.0029 Ry au, 
 
        Potential amp.        0.2659 Ry
        Total length         46.3494 bohr
 
 
     Adding external electric field

     Computed dipole along edir(3) : 
        Dipole               -1.5199 Ry au,         -3.8631 Debye
        Dipole field         -0.0029 Ry au, 
 
        Potential amp.        0.2659 Ry
        Total length         46.3494 bohr
 

     total cpu time spent up to now is     1026.9 secs

     total energy              =   -3332.15984629 Ry
     estimated scf accuracy    <      35.47399588 Ry

     total magnetization       =     0.12 Bohr mag/cell
     absolute magnetization    =     0.48 Bohr mag/cell

     iteration # 18     ecut=    36.75 Ry     beta= 0.05
     Davidson diagonalization with overlap
     ethr =  9.26E-04,  avg # of iterations =  2.1

     negative rho (up, down):  1.137E-02 1.134E-02
 
     Adding external electric field

     Computed dipole along edir(3) : 
        Dipole               -1.6498 Ry au,         -4.1933 Debye
        Dipole field         -0.0031 Ry au, 
 
        Potential amp.        0.2886 Ry
        Total length         46.3494 bohr
 
 
     Adding external electric field

     Computed dipole along edir(3) : 
        Dipole               -1.6498 Ry au,         -4.1933 Debye
        Dipole field         -0.0031 Ry au, 
 
        Potential amp.        0.2886 Ry
        Total length         46.3494 bohr
 

     total cpu time spent up to now is     1072.9 secs

     total energy              =   -3332.86652622 Ry
     estimated scf accuracy    <       1.34380411 Ry

     total magnetization       =    -0.03 Bohr mag/cell
     absolute magnetization    =     0.23 Bohr mag/cell

     iteration # 19     ecut=    36.75 Ry     beta= 0.05
     Davidson diagonalization with overlap
     c_bands:  1 eigenvalues not converged
     c_bands:  1 eigenvalues not converged
     c_bands:  2 eigenvalues not converged
     c_bands:  3 eigenvalues not converged
     ethr =  3.42E-04,  avg # of iterations = 13.8

     negative rho (up, down):  1.125E-02 1.121E-02
 
     Adding external electric field

     Computed dipole along edir(3) : 
        Dipole               -1.7043 Ry au,         -4.3319 Debye
        Dipole field         -0.0032 Ry au, 
 
        Potential amp.        0.2981 Ry
        Total length         46.3494 bohr
 
 
     Adding external electric field

     Computed dipole along edir(3) : 
        Dipole               -1.7043 Ry au,         -4.3319 Debye
        Dipole field         -0.0032 Ry au, 
 
        Potential amp.        0.2981 Ry
        Total length         46.3494 bohr
 

     total cpu time spent up to now is     1121.2 secs

     total energy              =   -3332.91219902 Ry
     estimated scf accuracy    <       1.52014130 Ry

     total magnetization       =    -0.03 Bohr mag/cell
     absolute magnetization    =     0.23 Bohr mag/cell

     iteration # 20     ecut=    36.75 Ry     beta= 0.05
     Davidson diagonalization with overlap
     ethr =  3.42E-04,  avg # of iterations =  1.1

     negative rho (up, down):  1.123E-02 1.118E-02
 
     Adding external electric field

     Computed dipole along edir(3) : 
        Dipole               -2.2226 Ry au,         -5.6492 Debye
        Dipole field         -0.0042 Ry au, 
 
        Potential amp.        0.3888 Ry
        Total length         46.3494 bohr
 
 
     Adding external electric field

     Computed dipole along edir(3) : 
        Dipole               -2.2226 Ry au,         -5.6492 Debye
        Dipole field         -0.0042 Ry au, 
 
        Potential amp.        0.3888 Ry
        Total length         46.3494 bohr
 

     total cpu time spent up to now is     1138.5 secs

     total energy              =   -3332.95527840 Ry
     estimated scf accuracy    <       1.24561472 Ry

     total magnetization       =    -0.00 Bohr mag/cell
     absolute magnetization    =     0.22 Bohr mag/cell

     iteration # 21     ecut=    36.75 Ry     beta= 0.05
     Davidson diagonalization with overlap
     c_bands:  2 eigenvalues not converged
     c_bands:  1 eigenvalues not converged
     c_bands:  3 eigenvalues not converged
     c_bands:  2 eigenvalues not converged
     c_bands:  1 eigenvalues not converged
     c_bands:  1 eigenvalues not converged
     c_bands:  1 eigenvalues not converged
     ethr =  3.17E-04,  avg # of iterations = 15.4

     negative rho (up, down):  1.111E-02 1.107E-02
 
     Adding external electric field

     Computed dipole along edir(3) : 
        Dipole               -2.0305 Ry au,         -5.1610 Debye
        Dipole field         -0.0038 Ry au, 
 
        Potential amp.        0.3552 Ry
        Total length         46.3494 bohr
 
 
     Adding external electric field

     Computed dipole along edir(3) : 
        Dipole               -2.0305 Ry au,         -5.1610 Debye
        Dipole field         -0.0038 Ry au, 
 
        Potential amp.        0.3552 Ry
        Total length         46.3494 bohr
 

     total cpu time spent up to now is     1336.5 secs

     total energy              =   -3332.84637135 Ry
     estimated scf accuracy    <      25.38120909 Ry

     total magnetization       =    -0.13 Bohr mag/cell
     absolute magnetization    =     0.36 Bohr mag/cell

     iteration # 22     ecut=    36.75 Ry     beta= 0.05
     Davidson diagonalization with overlap
     ethr =  3.17E-04,  avg # of iterations =  5.2

     negative rho (up, down):  1.096E-02 1.093E-02
 
     Adding external electric field

     Computed dipole along edir(3) : 
        Dipole               -1.9276 Ry au,         -4.8995 Debye
        Dipole field         -0.0036 Ry au, 
 
        Potential amp.        0.3372 Ry
        Total length         46.3494 bohr
 
 
     Adding external electric field

     Computed dipole along edir(3) : 
        Dipole               -1.9276 Ry au,         -4.8995 Debye
        Dipole field         -0.0036 Ry au, 
 
        Potential amp.        0.3372 Ry
        Total length         46.3494 bohr
 

     total cpu time spent up to now is     1403.8 secs

     total energy              =   -3332.94024341 Ry
     estimated scf accuracy    <       2.91733168 Ry

     total magnetization       =    -0.00 Bohr mag/cell
     absolute magnetization    =     0.13 Bohr mag/cell

     iteration # 23     ecut=    36.75 Ry     beta= 0.05
     Davidson diagonalization with overlap
     ethr =  3.17E-04,  avg # of iterations =  2.1

     negative rho (up, down):  1.094E-02 1.095E-02
 
     Adding external electric field

     Computed dipole along edir(3) : 
        Dipole               -1.4690 Ry au,         -3.7337 Debye
        Dipole field         -0.0028 Ry au, 
 
        Potential amp.        0.2570 Ry
        Total length         46.3494 bohr
 
 
     Adding external electric field

     Computed dipole along edir(3) : 
        Dipole               -1.4690 Ry au,         -3.7337 Debye
        Dipole field         -0.0028 Ry au, 
 
        Potential amp.        0.2570 Ry
        Total length         46.3494 bohr
 

     total cpu time spent up to now is     1424.7 secs

     total energy              =   -3332.80573184 Ry
     estimated scf accuracy    <       2.21051569 Ry

     total magnetization       =    -0.01 Bohr mag/cell
     absolute magnetization    =     0.11 Bohr mag/cell

     iteration # 24     ecut=    36.75 Ry     beta= 0.05
     Davidson diagonalization with overlap
     ethr =  3.17E-04,  avg # of iterations = 10.4

     negative rho (up, down):  1.088E-02 1.089E-02
 
     Adding external electric field

     Computed dipole along edir(3) : 
        Dipole               -1.4858 Ry au,         -3.7764 Debye
        Dipole field         -0.0028 Ry au, 
 
        Potential amp.        0.2599 Ry
        Total length         46.3494 bohr
 
 
     Adding external electric field

     Computed dipole along edir(3) : 
        Dipole               -1.4858 Ry au,         -3.7764 Debye
        Dipole field         -0.0028 Ry au, 
 
        Potential amp.        0.2599 Ry
        Total length         46.3494 bohr
 

     total cpu time spent up to now is     1450.4 secs

     total energy              =   -3332.88962252 Ry
     estimated scf accuracy    <       1.23669735 Ry

     total magnetization       =    -0.00 Bohr mag/cell
     absolute magnetization    =     0.10 Bohr mag/cell

     iteration # 25     ecut=    36.75 Ry     beta= 0.05
     Davidson diagonalization with overlap
     ethr =  3.15E-04,  avg # of iterations =  1.1

     negative rho (up, down):  1.058E-02 1.063E-02
 
     Adding external electric field

     Computed dipole along edir(3) : 
        Dipole               -1.8389 Ry au,         -4.6741 Debye
        Dipole field         -0.0035 Ry au, 
 
        Potential amp.        0.3217 Ry
        Total length         46.3494 bohr
 
 
     Adding external electric field

     Computed dipole along edir(3) : 
        Dipole               -1.8389 Ry au,         -4.6741 Debye
        Dipole field         -0.0035 Ry au, 
 
        Potential amp.        0.3217 Ry
        Total length         46.3494 bohr
 

     total cpu time spent up to now is     1486.9 secs

     total energy              =   -3332.91427106 Ry
     estimated scf accuracy    <       1.24930621 Ry

     total magnetization       =    -0.00 Bohr mag/cell
     absolute magnetization    =     0.10 Bohr mag/cell

     iteration # 26     ecut=    36.75 Ry     beta= 0.05
     Davidson diagonalization with overlap
     c_bands:  1 eigenvalues not converged
     ethr =  3.15E-04,  avg # of iterations = 12.7

     negative rho (up, down):  1.089E-02 1.096E-02
 
     Adding external electric field

     Computed dipole along edir(3) : 
        Dipole               -1.4710 Ry au,         -3.7388 Debye
        Dipole field         -0.0028 Ry au, 
 
        Potential amp.        0.2573 Ry
        Total length         46.3494 bohr
 
 
     Adding external electric field

     Computed dipole along edir(3) : 
        Dipole               -1.4710 Ry au,         -3.7388 Debye
        Dipole field         -0.0028 Ry au, 
 
        Potential amp.        0.2573 Ry
        Total length         46.3494 bohr
 

     total cpu time spent up to now is     1736.2 secs

     total energy              =   -3333.60440130 Ry
     estimated scf accuracy    <     119.81366341 Ry

     total magnetization       =     0.02 Bohr mag/cell
     absolute magnetization    =     0.12 Bohr mag/cell

     iteration # 27     ecut=    36.75 Ry     beta= 0.05
     Davidson diagonalization with overlap
     ethr =  3.15E-04,  avg # of iterations =  5.7

     negative rho (up, down):  1.097E-02 1.101E-02
 
     Adding external electric field

     Computed dipole along edir(3) : 
        Dipole               -1.7458 Ry au,         -4.4374 Debye
        Dipole field         -0.0033 Ry au, 
 
        Potential amp.        0.3054 Ry
        Total length         46.3494 bohr
 
 
     Adding external electric field

     Computed dipole along edir(3) : 
        Dipole               -1.7458 Ry au,         -4.4374 Debye
        Dipole field         -0.0033 Ry au, 
 
        Potential amp.        0.3054 Ry
        Total length         46.3494 bohr
 

     total cpu time spent up to now is     1757.9 secs

     total energy              =   -3333.47070896 Ry
     estimated scf accuracy    <     160.50367932 Ry

     total magnetization       =    -0.07 Bohr mag/cell
     absolute magnetization    =     0.23 Bohr mag/cell

     iteration # 28     ecut=    36.75 Ry     beta= 0.05
     Davidson diagonalization with overlap
     ethr =  3.15E-04,  avg # of iterations =  1.3

     negative rho (up, down):  1.098E-02 1.102E-02
 
     Adding external electric field

     Computed dipole along edir(3) : 
        Dipole               -1.7395 Ry au,         -4.4215 Debye
        Dipole field         -0.0033 Ry au, 
 
        Potential amp.        0.3043 Ry
        Total length         46.3494 bohr
 
 
     Adding external electric field

     Computed dipole along edir(3) : 
        Dipole               -1.7395 Ry au,         -4.4215 Debye
        Dipole field         -0.0033 Ry au, 
 
        Potential amp.        0.3043 Ry
        Total length         46.3494 bohr
 

     total cpu time spent up to now is     1803.1 secs

     total energy              =   -3333.64326017 Ry
     estimated scf accuracy    <      89.32074080 Ry

     total magnetization       =     0.03 Bohr mag/cell
     absolute magnetization    =     0.12 Bohr mag/cell

     iteration # 29     ecut=    36.75 Ry     beta= 0.05
     Davidson diagonalization with overlap
     ethr =  3.15E-04,  avg # of iterations =  1.0

     negative rho (up, down):  1.117E-02 1.120E-02
 
     Adding external electric field

     Computed dipole along edir(3) : 
        Dipole               -1.6337 Ry au,         -4.1524 Debye
        Dipole field         -0.0031 Ry au, 
 
        Potential amp.        0.2858 Ry
        Total length         46.3494 bohr
 
 
     Adding external electric field

     Computed dipole along edir(3) : 
        Dipole               -1.6337 Ry au,         -4.1524 Debye
        Dipole field         -0.0031 Ry au, 
 
        Potential amp.        0.2858 Ry
        Total length         46.3494 bohr
 

     total cpu time spent up to now is     1820.0 secs

     total energy              =   -3333.74544658 Ry
     estimated scf accuracy    <      95.37856220 Ry

     total magnetization       =     0.06 Bohr mag/cell
     absolute magnetization    =     0.15 Bohr mag/cell

     iteration # 30     ecut=    36.75 Ry     beta= 0.05
     Davidson diagonalization with overlap
     ethr =  3.15E-04,  avg # of iterations =  1.0

     negative rho (up, down):  1.193E-02 1.194E-02
 
     Adding external electric field

     Computed dipole along edir(3) : 
        Dipole               -1.5821 Ry au,         -4.0213 Debye
        Dipole field         -0.0030 Ry au, 
 
        Potential amp.        0.2768 Ry
        Total length         46.3494 bohr
 
 
     Adding external electric field

     Computed dipole along edir(3) : 
        Dipole               -1.5821 Ry au,         -4.0213 Debye
        Dipole field         -0.0030 Ry au, 
 
        Potential amp.        0.2768 Ry
        Total length         46.3494 bohr
 

     total cpu time spent up to now is     1853.2 secs

     total energy              =   -3333.87262001 Ry
     estimated scf accuracy    <     113.45064813 Ry

     total magnetization       =     0.03 Bohr mag/cell
     absolute magnetization    =     0.12 Bohr mag/cell

     iteration # 31     ecut=    36.75 Ry     beta= 0.05
     Davidson diagonalization with overlap
     ethr =  3.15E-04,  avg # of iterations =  2.0

     negative rho (up, down):  1.193E-02 1.194E-02
 
     Adding external electric field

     Computed dipole along edir(3) : 
        Dipole               -1.5799 Ry au,         -4.0158 Debye
        Dipole field         -0.0030 Ry au, 
 
        Potential amp.        0.2764 Ry
        Total length         46.3494 bohr
 
 
     Adding external electric field

     Computed dipole along edir(3) : 
        Dipole               -1.5799 Ry au,         -4.0158 Debye
        Dipole field         -0.0030 Ry au, 
 
        Potential amp.        0.2764 Ry
        Total length         46.3494 bohr
 

     total cpu time spent up to now is     1874.2 secs

     total energy              =   -3333.87217810 Ry
     estimated scf accuracy    <      94.65624153 Ry

     total magnetization       =     0.03 Bohr mag/cell
     absolute magnetization    =     0.13 Bohr mag/cell

     iteration # 32     ecut=    36.75 Ry     beta= 0.05
     Davidson diagonalization with overlap
     ethr =  3.15E-04,  avg # of iterations =  1.0

     negative rho (up, down):  1.155E-02 1.156E-02
 
     Adding external electric field

     Computed dipole along edir(3) : 
        Dipole               -1.2854 Ry au,         -3.2671 Debye
        Dipole field         -0.0024 Ry au, 
 
        Potential amp.        0.2249 Ry
        Total length         46.3494 bohr
 
 
     Adding external electric field

     Computed dipole along edir(3) : 
        Dipole               -1.2854 Ry au,         -3.2671 Debye
        Dipole field         -0.0024 Ry au, 
 
        Potential amp.        0.2249 Ry
        Total length         46.3494 bohr
 

     total cpu time spent up to now is     1891.2 secs

     total energy              =   -3332.99627293 Ry
     estimated scf accuracy    <      90.00152677 Ry

     total magnetization       =     0.00 Bohr mag/cell
     absolute magnetization    =     0.13 Bohr mag/cell

     iteration # 33     ecut=    36.75 Ry     beta= 0.05
     Davidson diagonalization with overlap
     ethr =  3.15E-04,  avg # of iterations =  2.2

     negative rho (up, down):  1.156E-02 1.154E-02
 
     Adding external electric field

     Computed dipole along edir(3) : 
        Dipole               -1.2188 Ry au,         -3.0979 Debye
        Dipole field         -0.0023 Ry au, 
 
        Potential amp.        0.2132 Ry
        Total length         46.3494 bohr
 
 
     Adding external electric field

     Computed dipole along edir(3) : 
        Dipole               -1.2188 Ry au,         -3.0979 Debye
        Dipole field         -0.0023 Ry au, 
 
        Potential amp.        0.2132 Ry
        Total length         46.3494 bohr
 

     total cpu time spent up to now is     1913.2 secs

     total energy              =   -3332.84092510 Ry
     estimated scf accuracy    <      50.16634316 Ry

     total magnetization       =     0.08 Bohr mag/cell
     absolute magnetization    =     0.16 Bohr mag/cell

     iteration # 34     ecut=    36.75 Ry     beta= 0.05
     Davidson diagonalization with overlap
     ethr =  3.15E-04,  avg # of iterations =  5.7

     negative rho (up, down):  1.178E-02 1.166E-02
 
     Adding external electric field

     Computed dipole along edir(3) : 
        Dipole               -0.7348 Ry au,         -1.8678 Debye
        Dipole field         -0.0014 Ry au, 
 
        Potential amp.        0.1285 Ry
        Total length         46.3494 bohr
 
 
     Adding external electric field

     Computed dipole along edir(3) : 
        Dipole               -0.7348 Ry au,         -1.8678 Debye
        Dipole field         -0.0014 Ry au, 
 
        Potential amp.        0.1285 Ry
        Total length         46.3494 bohr
 

     total cpu time spent up to now is     1937.6 secs

     total energy              =   -3332.02521321 Ry
     estimated scf accuracy    <      28.71872395 Ry

     total magnetization       =     0.37 Bohr mag/cell
     absolute magnetization    =     0.57 Bohr mag/cell

     iteration # 35     ecut=    36.75 Ry     beta= 0.05
     Davidson diagonalization with overlap
     c_bands:  1 eigenvalues not converged
     c_bands:  1 eigenvalues not converged
     c_bands:  2 eigenvalues not converged
     ethr =  3.15E-04,  avg # of iterations = 18.1

     negative rho (up, down):  1.137E-02 1.126E-02
 
     Adding external electric field

     Computed dipole along edir(3) : 
        Dipole               -1.0684 Ry au,         -2.7157 Debye
        Dipole field         -0.0020 Ry au, 
 
        Potential amp.        0.1869 Ry
        Total length         46.3494 bohr
 
 
     Adding external electric field

     Computed dipole along edir(3) : 
        Dipole               -1.0684 Ry au,         -2.7157 Debye
        Dipole field         -0.0020 Ry au, 
 
        Potential amp.        0.1869 Ry
        Total length         46.3494 bohr
 

     total cpu time spent up to now is     1977.5 secs

     total energy              =   -3332.35290543 Ry
     estimated scf accuracy    <      29.16511751 Ry

     total magnetization       =    -0.04 Bohr mag/cell
     absolute magnetization    =     0.60 Bohr mag/cell

     iteration # 36     ecut=    36.75 Ry     beta= 0.05
     Davidson diagonalization with overlap
     ethr =  3.15E-04,  avg # of iterations =  6.0

     negative rho (up, down):  1.134E-02 1.125E-02
 
     Adding external electric field

     Computed dipole along edir(3) : 
        Dipole               -0.6895 Ry au,         -1.7526 Debye
        Dipole field         -0.0013 Ry au, 
 
        Potential amp.        0.1206 Ry
        Total length         46.3494 bohr
 
 
     Adding external electric field

     Computed dipole along edir(3) : 
        Dipole               -0.6895 Ry au,         -1.7526 Debye
        Dipole field         -0.0013 Ry au, 
 
        Potential amp.        0.1206 Ry
        Total length         46.3494 bohr
 

     total cpu time spent up to now is     2007.2 secs

     total energy              =   -3332.88806237 Ry
     estimated scf accuracy    <       1.14148860 Ry

     total magnetization       =    -0.09 Bohr mag/cell
     absolute magnetization    =     0.22 Bohr mag/cell

     iteration # 37     ecut=    36.75 Ry     beta= 0.05
     Davidson diagonalization with overlap
     ethr =  2.90E-04,  avg # of iterations =  1.4

     negative rho (up, down):  1.131E-02 1.123E-02
 
     Adding external electric field

     Computed dipole along edir(3) : 
        Dipole               -0.5248 Ry au,         -1.3338 Debye
        Dipole field         -0.0010 Ry au, 
 
        Potential amp.        0.0918 Ry
        Total length         46.3494 bohr
 
 
     Adding external electric field

     Computed dipole along edir(3) : 
        Dipole               -0.5248 Ry au,         -1.3338 Debye
        Dipole field         -0.0010 Ry au, 
 
        Potential amp.        0.0918 Ry
        Total length         46.3494 bohr
 

     total cpu time spent up to now is     2027.1 secs

     total energy              =   -3332.84765014 Ry
     estimated scf accuracy    <       1.27451160 Ry

     total magnetization       =    -0.18 Bohr mag/cell
     absolute magnetization    =     0.29 Bohr mag/cell

     iteration # 38     ecut=    36.75 Ry     beta= 0.05
     Davidson diagonalization with overlap
     ethr =  2.90E-04,  avg # of iterations =  1.4

     negative rho (up, down):  1.130E-02 1.126E-02
 
     Adding external electric field

     Computed dipole along edir(3) : 
        Dipole               -0.0204 Ry au,         -0.0519 Debye
        Dipole field         -0.0000 Ry au, 
 
        Potential amp.        0.0036 Ry
        Total length         46.3494 bohr
 
 
     Adding external electric field

     Computed dipole along edir(3) : 
        Dipole               -0.0204 Ry au,         -0.0519 Debye
        Dipole field         -0.0000 Ry au, 
 
        Potential amp.        0.0036 Ry
        Total length         46.3494 bohr
 

     total cpu time spent up to now is     2063.5 secs

     total energy              =   -3332.76333518 Ry
     estimated scf accuracy    <       0.97124542 Ry

     total magnetization       =    -0.18 Bohr mag/cell
     absolute magnetization    =     0.30 Bohr mag/cell

     iteration # 39     ecut=    36.75 Ry     beta= 0.05
     Davidson diagonalization with overlap
     ethr =  2.47E-04,  avg # of iterations =  5.5

     negative rho (up, down):  1.118E-02 1.112E-02
 
     Adding external electric field

     Computed dipole along edir(3) : 
        Dipole               -0.3290 Ry au,         -0.8362 Debye
        Dipole field         -0.0006 Ry au, 
 
        Potential amp.        0.0576 Ry
        Total length         46.3494 bohr
 
 
     Adding external electric field

     Computed dipole along edir(3) : 
        Dipole               -0.3290 Ry au,         -0.8362 Debye
        Dipole field         -0.0006 Ry au, 
 
        Potential amp.        0.0576 Ry
        Total length         46.3494 bohr
 

     total cpu time spent up to now is     2128.9 secs

     total energy              =   -3332.71708745 Ry
     estimated scf accuracy    <       4.93016722 Ry

     total magnetization       =    -0.27 Bohr mag/cell
     absolute magnetization    =     0.41 Bohr mag/cell

     iteration # 40     ecut=    36.75 Ry     beta= 0.05
     Davidson diagonalization with overlap
     ethr =  2.47E-04,  avg # of iterations =  2.3

     negative rho (up, down):  1.110E-02 1.105E-02
 
     Adding external electric field

     Computed dipole along edir(3) : 
        Dipole               -0.2097 Ry au,         -0.5329 Debye
        Dipole field         -0.0004 Ry au, 
 
        Potential amp.        0.0367 Ry
        Total length         46.3494 bohr
 
 
     Adding external electric field

     Computed dipole along edir(3) : 
        Dipole               -0.2097 Ry au,         -0.5329 Debye
        Dipole field         -0.0004 Ry au, 
 
        Potential amp.        0.0367 Ry
        Total length         46.3494 bohr
 

     total cpu time spent up to now is     2151.1 secs

     total energy              =   -3332.78075469 Ry
     estimated scf accuracy    <       0.69084407 Ry

     total magnetization       =    -0.18 Bohr mag/cell
     absolute magnetization    =     0.29 Bohr mag/cell

     iteration # 41     ecut=    36.75 Ry     beta= 0.05
     Davidson diagonalization with overlap
     ethr =  1.76E-04,  avg # of iterations =  1.1

     negative rho (up, down):  1.086E-02 1.079E-02
 
     Adding external electric field

     Computed dipole along edir(3) : 
        Dipole               -0.6316 Ry au,         -1.6055 Debye
        Dipole field         -0.0012 Ry au, 
 
        Potential amp.        0.1105 Ry
        Total length         46.3494 bohr
 
 
     Adding external electric field

     Computed dipole along edir(3) : 
        Dipole               -0.6316 Ry au,         -1.6055 Debye
        Dipole field         -0.0012 Ry au, 
 
        Potential amp.        0.1105 Ry
        Total length         46.3494 bohr
 

     total cpu time spent up to now is     2168.5 secs

     total energy              =   -3332.69647021 Ry
     estimated scf accuracy    <       0.79084343 Ry

     total magnetization       =    -0.25 Bohr mag/cell
     absolute magnetization    =     0.37 Bohr mag/cell

     iteration # 42     ecut=    36.75 Ry     beta= 0.05
     Davidson diagonalization with overlap
     c_bands:  1 eigenvalues not converged
     c_bands:  1 eigenvalues not converged
     c_bands:  1 eigenvalues not converged
     c_bands:  1 eigenvalues not converged
     c_bands:  5 eigenvalues not converged
     c_bands:  1 eigenvalues not converged
     c_bands:  1 eigenvalues not converged
     c_bands:  1 eigenvalues not converged
     c_bands:  2 eigenvalues not converged
     c_bands:  1 eigenvalues not converged
     ethr =  1.76E-04,  avg # of iterations = 17.9

     negative rho (up, down):  1.083E-02 1.075E-02
 
     Adding external electric field

     Computed dipole along edir(3) : 
        Dipole               -0.6578 Ry au,         -1.6720 Debye
        Dipole field         -0.0012 Ry au, 
 
        Potential amp.        0.1151 Ry
        Total length         46.3494 bohr
 
 
     Adding external electric field

     Computed dipole along edir(3) : 
        Dipole               -0.6578 Ry au,         -1.6720 Debye
        Dipole field         -0.0012 Ry au, 
 
        Potential amp.        0.1151 Ry
        Total length         46.3494 bohr
 

     total cpu time spent up to now is     2223.3 secs

     total energy              =   -3332.76506752 Ry
     estimated scf accuracy    <       0.55617224 Ry

     total magnetization       =    -0.02 Bohr mag/cell
     absolute magnetization    =     0.12 Bohr mag/cell

     iteration # 43     ecut=    36.75 Ry     beta= 0.05
     Davidson diagonalization with overlap
     ethr =  1.42E-04,  avg # of iterations =  2.1

     negative rho (up, down):  1.085E-02 1.075E-02
 
     Adding external electric field

     Computed dipole along edir(3) : 
        Dipole               -0.4867 Ry au,         -1.2370 Debye
        Dipole field         -0.0009 Ry au, 
 
        Potential amp.        0.0851 Ry
        Total length         46.3494 bohr
 
 
     Adding external electric field

     Computed dipole along edir(3) : 
        Dipole               -0.4867 Ry au,         -1.2370 Debye
        Dipole field         -0.0009 Ry au, 
 
        Potential amp.        0.0851 Ry
        Total length         46.3494 bohr
 

     total cpu time spent up to now is     2242.4 secs

     total energy              =   -3332.73454918 Ry
     estimated scf accuracy    <       0.63817828 Ry

     total magnetization       =    -0.07 Bohr mag/cell
     absolute magnetization    =     0.16 Bohr mag/cell

     iteration # 44     ecut=    36.75 Ry     beta= 0.05
     Davidson diagonalization with overlap
     ethr =  1.42E-04,  avg # of iterations =  1.2

     negative rho (up, down):  1.084E-02 1.072E-02
 
     Adding external electric field

     Computed dipole along edir(3) : 
        Dipole               -0.4349 Ry au,         -1.1054 Debye
        Dipole field         -0.0008 Ry au, 
 
        Potential amp.        0.0761 Ry
        Total length         46.3494 bohr
 
 
     Adding external electric field

     Computed dipole along edir(3) : 
        Dipole               -0.4349 Ry au,         -1.1054 Debye
        Dipole field         -0.0008 Ry au, 
 
        Potential amp.        0.0761 Ry
        Total length         46.3494 bohr
 

     total cpu time spent up to now is     2275.6 secs

     total energy              =   -3332.74111030 Ry
     estimated scf accuracy    <       0.07060512 Ry

     total magnetization       =    -0.16 Bohr mag/cell
     absolute magnetization    =     0.25 Bohr mag/cell

     iteration # 45     ecut=    36.75 Ry     beta= 0.05
     Davidson diagonalization with overlap
     c_bands:  2 eigenvalues not converged
     c_bands:  3 eigenvalues not converged
     c_bands:  3 eigenvalues not converged
     c_bands:  2 eigenvalues not converged
     c_bands:  4 eigenvalues not converged
     c_bands:  3 eigenvalues not converged
     c_bands:  4 eigenvalues not converged
     c_bands:  1 eigenvalues not converged
     c_bands:  4 eigenvalues not converged
     c_bands:  1 eigenvalues not converged
     c_bands:  1 eigenvalues not converged
     c_bands:  1 eigenvalues not converged
     c_bands:  1 eigenvalues not converged
     c_bands:  3 eigenvalues not converged
     ethr =  1.80E-05,  avg # of iterations = 19.4

     negative rho (up, down):  1.082E-02 1.071E-02
 
     Adding external electric field

     Computed dipole along edir(3) : 
        Dipole               -0.3585 Ry au,         -0.9113 Debye
        Dipole field         -0.0007 Ry au, 
 
        Potential amp.        0.0627 Ry
        Total length         46.3494 bohr
 
 
     Adding external electric field

     Computed dipole along edir(3) : 
        Dipole               -0.3585 Ry au,         -0.9113 Debye
        Dipole field         -0.0007 Ry au, 
 
        Potential amp.        0.0627 Ry
        Total length         46.3494 bohr
 

     total cpu time spent up to now is     2342.4 secs

     total energy              =   -3332.74730161 Ry
     estimated scf accuracy    <       0.55357104 Ry

     total magnetization       =    -0.02 Bohr mag/cell
     absolute magnetization    =     0.14 Bohr mag/cell

     iteration # 46     ecut=    36.75 Ry     beta= 0.05
     Davidson diagonalization with overlap
     ethr =  1.80E-05,  avg # of iterations =  7.4

     negative rho (up, down):  1.077E-02 1.066E-02
 
     Adding external electric field

     Computed dipole along edir(3) : 
        Dipole               -0.3639 Ry au,         -0.9251 Debye
        Dipole field         -0.0007 Ry au, 
 
        Potential amp.        0.0637 Ry
        Total length         46.3494 bohr
 
 
     Adding external electric field

     Computed dipole along edir(3) : 
        Dipole               -0.3639 Ry au,         -0.9251 Debye
        Dipole field         -0.0007 Ry au, 
 
        Potential amp.        0.0637 Ry
        Total length         46.3494 bohr
 

     total cpu time spent up to now is     2369.1 secs

     total energy              =   -3332.74843527 Ry
     estimated scf accuracy    <       0.18688648 Ry

     total magnetization       =    -0.02 Bohr mag/cell
     absolute magnetization    =     0.13 Bohr mag/cell

     iteration # 47     ecut=    36.75 Ry     beta= 0.05
     Davidson diagonalization with overlap
     ethr =  1.80E-05,  avg # of iterations =  1.3

     negative rho (up, down):  1.067E-02 1.057E-02
 
     Adding external electric field

     Computed dipole along edir(3) : 
        Dipole               -0.2933 Ry au,         -0.7455 Debye
        Dipole field         -0.0006 Ry au, 
 
        Potential amp.        0.0513 Ry
        Total length         46.3494 bohr
 
 
     Adding external electric field

     Computed dipole along edir(3) : 
        Dipole               -0.2933 Ry au,         -0.7455 Debye
        Dipole field         -0.0006 Ry au, 
 
        Potential amp.        0.0513 Ry
        Total length         46.3494 bohr
 

     total cpu time spent up to now is     2399.3 secs

     total energy              =   -3332.74445822 Ry
     estimated scf accuracy    <       0.13924706 Ry

     total magnetization       =    -0.03 Bohr mag/cell
     absolute magnetization    =     0.15 Bohr mag/cell

     iteration # 48     ecut=    36.75 Ry     beta= 0.05
     Davidson diagonalization with overlap
     c_bands:  1 eigenvalues not converged
     c_bands:  1 eigenvalues not converged
     ethr =  1.80E-05,  avg # of iterations = 11.4

     negative rho (up, down):  1.057E-02 1.046E-02
 
     Adding external electric field

     Computed dipole along edir(3) : 
        Dipole               -0.1619 Ry au,         -0.4116 Debye
        Dipole field         -0.0003 Ry au, 
 
        Potential amp.        0.0283 Ry
        Total length         46.3494 bohr
 
 
     Adding external electric field

     Computed dipole along edir(3) : 
        Dipole               -0.1619 Ry au,         -0.4116 Debye
        Dipole field         -0.0003 Ry au, 
 
        Potential amp.        0.0283 Ry
        Total length         46.3494 bohr
 

     total cpu time spent up to now is     2489.9 secs

     total energy              =   -3332.74843962 Ry
     estimated scf accuracy    <       0.04076676 Ry

     total magnetization       =    -0.23 Bohr mag/cell
     absolute magnetization    =     0.30 Bohr mag/cell

     iteration # 49     ecut=    36.75 Ry     beta= 0.05
     Davidson diagonalization with overlap
     c_bands:  1 eigenvalues not converged
     c_bands:  2 eigenvalues not converged
     c_bands:  2 eigenvalues not converged
     ethr =  1.04E-05,  avg # of iterations = 12.7

     negative rho (up, down):  1.055E-02 1.043E-02
 
     Adding external electric field

     Computed dipole along edir(3) : 
        Dipole               -0.1302 Ry au,         -0.3310 Debye
        Dipole field         -0.0002 Ry au, 
 
        Potential amp.        0.0228 Ry
        Total length         46.3494 bohr
 
 
     Adding external electric field

     Computed dipole along edir(3) : 
        Dipole               -0.1302 Ry au,         -0.3310 Debye
        Dipole field         -0.0002 Ry au, 
 
        Potential amp.        0.0228 Ry
        Total length         46.3494 bohr
 

     total cpu time spent up to now is     2552.0 secs

     total energy              =   -3332.74988585 Ry
     estimated scf accuracy    <       0.21551429 Ry

     total magnetization       =    -0.38 Bohr mag/cell
     absolute magnetization    =     0.44 Bohr mag/cell

     iteration # 50     ecut=    36.75 Ry     beta= 0.05
     Davidson diagonalization with overlap
     ethr =  1.04E-05,  avg # of iterations =  3.1

     negative rho (up, down):  1.110E-02 1.096E-02
 
     Adding external electric field

     Computed dipole along edir(3) : 
        Dipole               -0.0890 Ry au,         -0.2263 Debye
        Dipole field         -0.0002 Ry au, 
 
        Potential amp.        0.0156 Ry
        Total length         46.3494 bohr
 
 
     Adding external electric field

     Computed dipole along edir(3) : 
        Dipole               -0.0890 Ry au,         -0.2263 Debye
        Dipole field         -0.0002 Ry au, 
 
        Potential amp.        0.0156 Ry
        Total length         46.3494 bohr
 

     total cpu time spent up to now is     2654.2 secs

     total energy              =   -3332.74323731 Ry
     estimated scf accuracy    <       0.15605416 Ry

     total magnetization       =    -0.39 Bohr mag/cell
     absolute magnetization    =     0.44 Bohr mag/cell

     iteration # 51     ecut=    36.75 Ry     beta= 0.05
     Davidson diagonalization with overlap
     c_bands:  2 eigenvalues not converged
     ethr =  1.04E-05,  avg # of iterations =  8.6

     negative rho (up, down):  1.125E-02 1.111E-02
 
     Adding external electric field

     Computed dipole along edir(3) : 
        Dipole               -0.0898 Ry au,         -0.2284 Debye
        Dipole field         -0.0002 Ry au, 
 
        Potential amp.        0.0157 Ry
        Total length         46.3494 bohr
 
 
     Adding external electric field

     Computed dipole along edir(3) : 
        Dipole               -0.0898 Ry au,         -0.2284 Debye
        Dipole field         -0.0002 Ry au, 
 
        Potential amp.        0.0157 Ry
        Total length         46.3494 bohr
 

     total cpu time spent up to now is     2685.5 secs

     total energy              =   -3332.74814617 Ry
     estimated scf accuracy    <       0.01554587 Ry

     total magnetization       =    -0.12 Bohr mag/cell
     absolute magnetization    =     0.19 Bohr mag/cell

     iteration # 52     ecut=    36.75 Ry     beta= 0.05
     Davidson diagonalization with overlap
     c_bands:  1 eigenvalues not converged
     c_bands:  2 eigenvalues not converged
     c_bands:  1 eigenvalues not converged
     c_bands:  1 eigenvalues not converged
     ethr =  3.96E-06,  avg # of iterations = 12.1

     negative rho (up, down):  1.112E-02 1.098E-02
 
     Adding external electric field

     Computed dipole along edir(3) : 
        Dipole               -0.0979 Ry au,         -0.2490 Debye
        Dipole field         -0.0002 Ry au, 
 
        Potential amp.        0.0171 Ry
        Total length         46.3494 bohr
 
 
     Adding external electric field

     Computed dipole along edir(3) : 
        Dipole               -0.0979 Ry au,         -0.2490 Debye
        Dipole field         -0.0002 Ry au, 
 
        Potential amp.        0.0171 Ry
        Total length         46.3494 bohr
 

     total cpu time spent up to now is     2710.5 secs

     total energy              =   -3332.74833789 Ry
     estimated scf accuracy    <       0.01634991 Ry

     total magnetization       =    -0.10 Bohr mag/cell
     absolute magnetization    =     0.18 Bohr mag/cell

     iteration # 53     ecut=    36.75 Ry     beta= 0.05
     Davidson diagonalization with overlap
     c_bands:  1 eigenvalues not converged
     ethr =  3.96E-06,  avg # of iterations =  2.2

     negative rho (up, down):  1.095E-02 1.081E-02
 
     Adding external electric field

     Computed dipole along edir(3) : 
        Dipole               -0.1146 Ry au,         -0.2912 Debye
        Dipole field         -0.0002 Ry au, 
 
        Potential amp.        0.0200 Ry
        Total length         46.3494 bohr
 
 
     Adding external electric field

     Computed dipole along edir(3) : 
        Dipole               -0.1146 Ry au,         -0.2912 Debye
        Dipole field         -0.0002 Ry au, 
 
        Potential amp.        0.0200 Ry
        Total length         46.3494 bohr
 

     total cpu time spent up to now is     2754.4 secs

     total energy              =   -3332.74816111 Ry
     estimated scf accuracy    <       0.01666052 Ry

     total magnetization       =    -0.10 Bohr mag/cell
     absolute magnetization    =     0.18 Bohr mag/cell

     iteration # 54     ecut=    36.75 Ry     beta= 0.05
     Davidson diagonalization with overlap
     c_bands:  1 eigenvalues not converged
     c_bands:  1 eigenvalues not converged
     ethr =  3.96E-06,  avg # of iterations =  3.6

     negative rho (up, down):  1.054E-02 1.040E-02
 
     Adding external electric field

     Computed dipole along edir(3) : 
        Dipole               -0.1699 Ry au,         -0.4319 Debye
        Dipole field         -0.0003 Ry au, 
 
        Potential amp.        0.0297 Ry
        Total length         46.3494 bohr
 
 
     Adding external electric field

     Computed dipole along edir(3) : 
        Dipole               -0.1699 Ry au,         -0.4319 Debye
        Dipole field         -0.0003 Ry au, 
 
        Potential amp.        0.0297 Ry
        Total length         46.3494 bohr
 

     total cpu time spent up to now is     2840.2 secs

     total energy              =   -3332.74669681 Ry
     estimated scf accuracy    <       0.01825007 Ry

     total magnetization       =    -0.09 Bohr mag/cell
     absolute magnetization    =     0.17 Bohr mag/cell

     iteration # 55     ecut=    36.75 Ry     beta= 0.05
     Davidson diagonalization with overlap
     ethr =  3.96E-06,  avg # of iterations =  8.6

     negative rho (up, down):  1.059E-02 1.045E-02
 
     Adding external electric field

     Computed dipole along edir(3) : 
        Dipole               -0.1489 Ry au,         -0.3786 Debye
        Dipole field         -0.0003 Ry au, 
 
        Potential amp.        0.0261 Ry
        Total length         46.3494 bohr
 
 
     Adding external electric field

     Computed dipole along edir(3) : 
        Dipole               -0.1489 Ry au,         -0.3786 Debye
        Dipole field         -0.0003 Ry au, 
 
        Potential amp.        0.0261 Ry
        Total length         46.3494 bohr
 

     total cpu time spent up to now is     2885.9 secs

     total energy              =   -3332.74709745 Ry
     estimated scf accuracy    <       0.01403971 Ry

     total magnetization       =    -0.10 Bohr mag/cell
     absolute magnetization    =     0.18 Bohr mag/cell

     iteration # 56     ecut=    36.75 Ry     beta= 0.05
     Davidson diagonalization with overlap
     ethr =  3.57E-06,  avg # of iterations =  1.0

     negative rho (up, down):  1.071E-02 1.057E-02
 
     Adding external electric field

     Computed dipole along edir(3) : 
        Dipole               -0.1278 Ry au,         -0.3249 Debye
        Dipole field         -0.0002 Ry au, 
 
        Potential amp.        0.0224 Ry
        Total length         46.3494 bohr
 
 
     Adding external electric field

     Computed dipole along edir(3) : 
        Dipole               -0.1278 Ry au,         -0.3249 Debye
        Dipole field         -0.0002 Ry au, 
 
        Potential amp.        0.0224 Ry
        Total length         46.3494 bohr
 

     total cpu time spent up to now is     2902.9 secs

     total energy              =   -3332.74723896 Ry
     estimated scf accuracy    <       0.00472411 Ry

     total magnetization       =    -0.11 Bohr mag/cell
     absolute magnetization    =     0.20 Bohr mag/cell

     iteration # 57     ecut=    36.75 Ry     beta= 0.05
     Davidson diagonalization with overlap
     ethr =  1.20E-06,  avg # of iterations =  5.0

     negative rho (up, down):  1.144E-02 1.129E-02
 
     Adding external electric field

     Computed dipole along edir(3) : 
        Dipole               -0.1128 Ry au,         -0.2868 Debye
        Dipole field         -0.0002 Ry au, 
 
        Potential amp.        0.0197 Ry
        Total length         46.3494 bohr
 
 
     Adding external electric field

     Computed dipole along edir(3) : 
        Dipole               -0.1128 Ry au,         -0.2868 Debye
        Dipole field         -0.0002 Ry au, 
 
        Potential amp.        0.0197 Ry
        Total length         46.3494 bohr
 

     total cpu time spent up to now is     2923.5 secs

     total energy              =   -3332.74754226 Ry
     estimated scf accuracy    <       0.00192853 Ry

     total magnetization       =    -0.14 Bohr mag/cell
     absolute magnetization    =     0.22 Bohr mag/cell

     iteration # 58     ecut=    36.75 Ry     beta= 0.05
     Davidson diagonalization with overlap
     ethr =  4.91E-07,  avg # of iterations =  5.7

     negative rho (up, down):  1.131E-02 1.114E-02
 
     Adding external electric field

     Computed dipole along edir(3) : 
        Dipole               -0.1569 Ry au,         -0.3989 Debye
        Dipole field         -0.0003 Ry au, 
 
        Potential amp.        0.0275 Ry
        Total length         46.3494 bohr
 
 
     Adding external electric field

     Computed dipole along edir(3) : 
        Dipole               -0.1569 Ry au,         -0.3989 Debye
        Dipole field         -0.0003 Ry au, 
 
        Potential amp.        0.0275 Ry
        Total length         46.3494 bohr
 

     total cpu time spent up to now is     2944.7 secs

     total energy              =   -3332.74739532 Ry
     estimated scf accuracy    <       0.00587374 Ry

     total magnetization       =    -0.21 Bohr mag/cell
     absolute magnetization    =     0.27 Bohr mag/cell

     iteration # 59     ecut=    36.75 Ry     beta= 0.05
     Davidson diagonalization with overlap
     c_bands:  1 eigenvalues not converged
     ethr =  4.91E-07,  avg # of iterations =  6.9

     negative rho (up, down):  1.154E-02 1.138E-02
 
     Adding external electric field

     Computed dipole along edir(3) : 
        Dipole               -0.1348 Ry au,         -0.3427 Debye
        Dipole field         -0.0003 Ry au, 
 
        Potential amp.        0.0236 Ry
        Total length         46.3494 bohr
 
 
     Adding external electric field

     Computed dipole along edir(3) : 
        Dipole               -0.1348 Ry au,         -0.3427 Debye
        Dipole field         -0.0003 Ry au, 
 
        Potential amp.        0.0236 Ry
        Total length         46.3494 bohr
 

     total cpu time spent up to now is     2971.4 secs

     total energy              =   -3332.74759555 Ry
     estimated scf accuracy    <       0.00680866 Ry

     total magnetization       =    -0.14 Bohr mag/cell
     absolute magnetization    =     0.21 Bohr mag/cell

     iteration # 60     ecut=    36.75 Ry     beta= 0.05
     Davidson diagonalization with overlap
     ethr =  4.91E-07,  avg # of iterations =  3.5

     negative rho (up, down):  1.141E-02 1.124E-02
 
     Adding external electric field

     Computed dipole along edir(3) : 
        Dipole               -0.1338 Ry au,         -0.3401 Debye
        Dipole field         -0.0003 Ry au, 
 
        Potential amp.        0.0234 Ry
        Total length         46.3494 bohr
 
 
     Adding external electric field

     Computed dipole along edir(3) : 
        Dipole               -0.1338 Ry au,         -0.3401 Debye
        Dipole field         -0.0003 Ry au, 
 
        Potential amp.        0.0234 Ry
        Total length         46.3494 bohr
 

     total cpu time spent up to now is     3010.0 secs

     total energy              =   -3332.74764663 Ry
     estimated scf accuracy    <       0.00047450 Ry

     total magnetization       =    -0.18 Bohr mag/cell
     absolute magnetization    =     0.25 Bohr mag/cell

     iteration # 61     ecut=    36.75 Ry     beta= 0.05
     Davidson diagonalization with overlap
     ethr =  1.21E-07,  avg # of iterations =  6.2

     negative rho (up, down):  1.156E-02 1.138E-02
 
     Adding external electric field

     Computed dipole along edir(3) : 
        Dipole               -0.1321 Ry au,         -0.3357 Debye
        Dipole field         -0.0002 Ry au, 
 
        Potential amp.        0.0231 Ry
        Total length         46.3494 bohr
 
 
     Adding external electric field

     Computed dipole along edir(3) : 
        Dipole               -0.1321 Ry au,         -0.3357 Debye
        Dipole field         -0.0002 Ry au, 
 
        Potential amp.        0.0231 Ry
        Total length         46.3494 bohr
 

     total cpu time spent up to now is     3043.6 secs

     total energy              =   -3332.74770530 Ry
     estimated scf accuracy    <       0.00084739 Ry

     total magnetization       =    -0.17 Bohr mag/cell
     absolute magnetization    =     0.24 Bohr mag/cell

     iteration # 62     ecut=    36.75 Ry     beta= 0.05
     Davidson diagonalization with overlap
     ethr =  1.21E-07,  avg # of iterations =  1.4

     negative rho (up, down):  1.137E-02 1.119E-02
 
     Adding external electric field

     Computed dipole along edir(3) : 
        Dipole               -0.1518 Ry au,         -0.3857 Debye
        Dipole field         -0.0003 Ry au, 
 
        Potential amp.        0.0265 Ry
        Total length         46.3494 bohr
 
 
     Adding external electric field

     Computed dipole along edir(3) : 
[...]
 
 
     Adding external electric field

     Computed dipole along edir(3) : 
        Dipole               -0.1664 Ry au,         -0.4228 Debye
        Dipole field         -0.0003 Ry au, 
 
        Potential amp.        0.0291 Ry
        Total length         46.3494 bohr
 

     total cpu time spent up to now is    27913.6 secs

     total energy              =   -3332.74780702 Ry
     estimated scf accuracy    <       0.00051899 Ry

     total magnetization       =    -0.12 Bohr mag/cell
     absolute magnetization    =     0.41 Bohr mag/cell

     iteration #524     ecut=    36.75 Ry     beta= 0.05
     Davidson diagonalization with overlap
     ethr =  2.46E-10,  avg # of iterations =  5.8

     negative rho (up, down):  1.059E-02 1.042E-02
 
     Adding external electric field

     Computed dipole along edir(3) : 
        Dipole               -0.1663 Ry au,         -0.4227 Debye
        Dipole field         -0.0003 Ry au, 
 
        Potential amp.        0.0291 Ry
        Total length         46.3494 bohr
 
 
     Adding external electric field

     Computed dipole along edir(3) : 
        Dipole               -0.1663 Ry au,         -0.4227 Debye
        Dipole field         -0.0003 Ry au, 
 
        Potential amp.        0.0291 Ry
        Total length         46.3494 bohr
 

     total cpu time spent up to now is    27940.3 secs

     total energy              =   -3332.74781139 Ry
     estimated scf accuracy    <       0.00058727 Ry

     total magnetization       =    -0.11 Bohr mag/cell
     absolute magnetization    =     0.42 Bohr mag/cell

     iteration #525     ecut=    36.75 Ry     beta= 0.05
     Davidson diagonalization with overlap
     ethr =  2.46E-10,  avg # of iterations =  6.2

     negative rho (up, down):  1.060E-02 1.041E-02
 
     Adding external electric field

     Computed dipole along edir(3) : 
        Dipole               -0.1665 Ry au,         -0.4231 Debye
        Dipole field         -0.0003 Ry au, 
 
        Potential amp.        0.0291 Ry
        Total length         46.3494 bohr
 
 
     Adding external electric field

     Computed dipole along edir(3) : 
        Dipole               -0.1665 Ry au,         -0.4231 Debye
        Dipole field         -0.0003 Ry au, 
 
        Potential amp.        0.0291 Ry
        Total length         46.3494 bohr
 

     total cpu time spent up to now is    27968.3 secs

     total energy              =   -3332.74780338 Ry
     estimated scf accuracy    <       0.00071003 Ry

     total magnetization       =    -0.10 Bohr mag/cell
     absolute magnetization    =     0.43 Bohr mag/cell

     iteration #526     ecut=    36.75 Ry     beta= 0.05
     Davidson diagonalization with overlap
     ethr =  2.46E-10,  avg # of iterations =  8.8

     negative rho (up, down):  1.060E-02 1.041E-02
 
     Adding external electric field

     Computed dipole along edir(3) : 
        Dipole               -0.1665 Ry au,         -0.4232 Debye
        Dipole field         -0.0003 Ry au, 
 
        Potential amp.        0.0291 Ry
        Total length         46.3494 bohr
 
 
     Adding external electric field

     Computed dipole along edir(3) : 
        Dipole               -0.1665 Ry au,         -0.4232 Debye
        Dipole field         -0.0003 Ry au, 
 
        Potential amp.        0.0291 Ry
        Total length         46.3494 bohr
 

     total cpu time spent up to now is    28036.2 secs

     total energy              =   -3332.74780716 Ry
     estimated scf accuracy    <       0.00059717 Ry

     total magnetization       =    -0.13 Bohr mag/cell
     absolute magnetization    =     0.41 Bohr mag/cell

     iteration #527     ecut=    36.75 Ry     beta= 0.05
     Davidson diagonalization with overlap
     ethr =  2.46E-10,  avg # of iterations =  2.4

     negative rho (up, down):  1.060E-02 1.039E-02
 
     Adding external electric field

     Computed dipole along edir(3) : 
        Dipole               -0.1665 Ry au,         -0.4233 Debye
        Dipole field         -0.0003 Ry au, 
 
        Potential amp.        0.0291 Ry
        Total length         46.3494 bohr
 
 
     Adding external electric field

     Computed dipole along edir(3) : 
        Dipole               -0.1665 Ry au,         -0.4233 Debye
        Dipole field         -0.0003 Ry au, 
 
        Potential amp.        0.0291 Ry
        Total length         46.3494 bohr
 

     total cpu time spent up to now is    28062.0 secs

     total energy              =   -3332.74778555 Ry
     estimated scf accuracy    <       0.00055070 Ry

     total magnetization       =    -0.13 Bohr mag/cell
     absolute magnetization    =     0.41 Bohr mag/cell

     iteration #528     ecut=    36.75 Ry     beta= 0.05
     Davidson diagonalization with overlap
     ethr =  2.46E-10,  avg # of iterations =  9.5

     negative rho (up, down):  1.060E-02 1.040E-02
 
     Adding external electric field

     Computed dipole along edir(3) : 
        Dipole               -0.1665 Ry au,         -0.4231 Debye
        Dipole field         -0.0003 Ry au, 
 
        Potential amp.        0.0291 Ry
        Total length         46.3494 bohr
 
 
     Adding external electric field

     Computed dipole along edir(3) : 
        Dipole               -0.1665 Ry au,         -0.4231 Debye
        Dipole field         -0.0003 Ry au, 
 
        Potential amp.        0.0291 Ry
        Total length         46.3494 bohr
 

     total cpu time spent up to now is    28124.8 secs

     total energy              =   -3332.74779865 Ry
     estimated scf accuracy    <       0.00017677 Ry

     total magnetization       =    -0.16 Bohr mag/cell
     absolute magnetization    =     0.38 Bohr mag/cell

     iteration #529     ecut=    36.75 Ry     beta= 0.05
     Davidson diagonalization with overlap
     ethr =  2.46E-10,  avg # of iterations =  6.1

     negative rho (up, down):  1.061E-02 1.039E-02
 
     Adding external electric field

     Computed dipole along edir(3) : 
        Dipole               -0.1667 Ry au,         -0.4237 Debye
        Dipole field         -0.0003 Ry au, 
 
        Potential amp.        0.0292 Ry
        Total length         46.3494 bohr
 
 
     Adding external electric field

     Computed dipole along edir(3) : 
        Dipole               -0.1667 Ry au,         -0.4237 Debye
        Dipole field         -0.0003 Ry au, 
 
        Potential amp.        0.0292 Ry
        Total length         46.3494 bohr
 

     total cpu time spent up to now is    28155.7 secs

     total energy              =   -3332.74779480 Ry
     estimated scf accuracy    <       0.00026491 Ry

     total magnetization       =    -0.15 Bohr mag/cell
     absolute magnetization    =     0.39 Bohr mag/cell

     iteration #530     ecut=    36.75 Ry     beta= 0.05
     Davidson diagonalization with overlap
     ethr =  2.46E-10,  avg # of iterations =  6.7

     negative rho (up, down):  1.071E-02 1.029E-02
 
     Adding external electric field

     Computed dipole along edir(3) : 
        Dipole               -0.1680 Ry au,         -0.4271 Debye
        Dipole field         -0.0003 Ry au, 
 
        Potential amp.        0.0294 Ry
        Total length         46.3494 bohr
 
 
     Adding external electric field

     Computed dipole along edir(3) : 
        Dipole               -0.1680 Ry au,         -0.4271 Debye
        Dipole field         -0.0003 Ry au, 
 
        Potential amp.        0.0294 Ry
        Total length         46.3494 bohr
 

     total cpu time spent up to now is    28184.8 secs

     total energy              =   -3332.74752980 Ry
     estimated scf accuracy    <       0.00012231 Ry

     total magnetization       =    -0.17 Bohr mag/cell
     absolute magnetization    =     0.38 Bohr mag/cell

     iteration #531     ecut=    36.75 Ry     beta= 0.05
     Davidson diagonalization with overlap
     c_bands:  1 eigenvalues not converged
     c_bands:  1 eigenvalues not converged
     c_bands:  1 eigenvalues not converged
     c_bands:  1 eigenvalues not converged
     c_bands:  1 eigenvalues not converged
     c_bands:  1 eigenvalues not converged
     c_bands:  2 eigenvalues not converged
     c_bands:  1 eigenvalues not converged
     ethr =  2.46E-10,  avg # of iterations = 15.2

     negative rho (up, down):  1.055E-02 1.046E-02
 
     Adding external electric field

     Computed dipole along edir(3) : 
        Dipole               -0.1659 Ry au,         -0.4217 Debye
        Dipole field         -0.0003 Ry au, 
 
        Potential amp.        0.0290 Ry
        Total length         46.3494 bohr
 
 
     Adding external electric field

     Computed dipole along edir(3) : 
        Dipole               -0.1659 Ry au,         -0.4217 Debye
        Dipole field         -0.0003 Ry au, 
 
        Potential amp.        0.0290 Ry
        Total length         46.3494 bohr
 

     total cpu time spent up to now is    28252.1 secs

     total energy              =   -3332.74712928 Ry
     estimated scf accuracy    <       0.00002362 Ry

     total magnetization       =    -0.36 Bohr mag/cell
     absolute magnetization    =     0.51 Bohr mag/cell

     iteration #532     ecut=    36.75 Ry     beta= 0.05
     Davidson diagonalization with overlap
     c_bands:  3 eigenvalues not converged
     c_bands:  2 eigenvalues not converged
     c_bands:  1 eigenvalues not converged
     c_bands:  3 eigenvalues not converged
     c_bands:  1 eigenvalues not converged
     c_bands:  2 eigenvalues not converged
     c_bands:  1 eigenvalues not converged
     c_bands:  1 eigenvalues not converged
     c_bands:  2 eigenvalues not converged
     c_bands:  1 eigenvalues not converged
     ethr =  2.46E-10,  avg # of iterations = 15.8

     negative rho (up, down):  1.055E-02 1.046E-02
 
     Adding external electric field

     Computed dipole along edir(3) : 
        Dipole               -0.1659 Ry au,         -0.4217 Debye
        Dipole field         -0.0003 Ry au, 
 
        Potential amp.        0.0290 Ry
        Total length         46.3494 bohr
 
 
     Adding external electric field

     Computed dipole along edir(3) : 
        Dipole               -0.1659 Ry au,         -0.4217 Debye
        Dipole field         -0.0003 Ry au, 
 
        Potential amp.        0.0290 Ry
        Total length         46.3494 bohr
 

     total cpu time spent up to now is    28316.0 secs

     total energy              =   -3332.74780005 Ry
     estimated scf accuracy    <       0.00047817 Ry

     total magnetization       =    -0.05 Bohr mag/cell
     absolute magnetization    =     0.46 Bohr mag/cell

     iteration #533     ecut=    36.75 Ry     beta= 0.05
     Davidson diagonalization with overlap
     ethr =  2.46E-10,  avg # of iterations =  5.0

     negative rho (up, down):  1.055E-02 1.045E-02
 
     Adding external electric field

     Computed dipole along edir(3) : 
        Dipole               -0.1660 Ry au,         -0.4220 Debye
        Dipole field         -0.0003 Ry au, 
 
        Potential amp.        0.0290 Ry
        Total length         46.3494 bohr
 
 
     Adding external electric field

     Computed dipole along edir(3) : 
        Dipole               -0.1660 Ry au,         -0.4220 Debye
        Dipole field         -0.0003 Ry au, 
 
        Potential amp.        0.0290 Ry
        Total length         46.3494 bohr
 

     total cpu time spent up to now is    28335.6 secs

     total energy              =   -3332.74779852 Ry
     estimated scf accuracy    <       0.00049119 Ry

     total magnetization       =    -0.05 Bohr mag/cell
     absolute magnetization    =     0.46 Bohr mag/cell

     iteration #534     ecut=    36.75 Ry     beta= 0.05
     Davidson diagonalization with overlap
     ethr =  2.46E-10,  avg # of iterations =  3.8

     negative rho (up, down):  1.055E-02 1.045E-02
 
     Adding external electric field

     Computed dipole along edir(3) : 
        Dipole               -0.1660 Ry au,         -0.4220 Debye
        Dipole field         -0.0003 Ry au, 
 
        Potential amp.        0.0290 Ry
        Total length         46.3494 bohr
 
 
     Adding external electric field

     Computed dipole along edir(3) : 
        Dipole               -0.1660 Ry au,         -0.4220 Debye
        Dipole field         -0.0003 Ry au, 
 
        Potential amp.        0.0290 Ry
        Total length         46.3494 bohr
 

     total cpu time spent up to now is    28355.8 secs

     total energy              =   -3332.74779861 Ry
     estimated scf accuracy    <       0.00045854 Ry

     total magnetization       =    -0.06 Bohr mag/cell
     absolute magnetization    =     0.46 Bohr mag/cell

     iteration #535     ecut=    36.75 Ry     beta= 0.05
     Davidson diagonalization with overlap
     ethr =  2.46E-10,  avg # of iterations =  1.0

     negative rho (up, down):  1.054E-02 1.044E-02
 
     Adding external electric field

     Computed dipole along edir(3) : 
        Dipole               -0.1660 Ry au,         -0.4220 Debye
        Dipole field         -0.0003 Ry au, 
 
        Potential amp.        0.0290 Ry
        Total length         46.3494 bohr
 
 
     Adding external electric field

     Computed dipole along edir(3) : 
        Dipole               -0.1660 Ry au,         -0.4220 Debye
        Dipole field         -0.0003 Ry au, 
 
        Potential amp.        0.0290 Ry
        Total length         46.3494 bohr
 

     total cpu time spent up to now is    28372.7 secs

     total energy              =   -3332.74779433 Ry
     estimated scf accuracy    <       0.00045093 Ry

     total magnetization       =    -0.06 Bohr mag/cell
     absolute magnetization    =     0.46 Bohr mag/cell

     iteration #536     ecut=    36.75 Ry     beta= 0.05
     Davidson diagonalization with overlap
     ethr =  2.46E-10,  avg # of iterations =  5.4

     negative rho (up, down):  1.057E-02 1.043E-02
 
     Adding external electric field

     Computed dipole along edir(3) : 
        Dipole               -0.1665 Ry au,         -0.4231 Debye
        Dipole field         -0.0003 Ry au, 
 
        Potential amp.        0.0291 Ry
        Total length         46.3494 bohr
 
 
     Adding external electric field

     Computed dipole along edir(3) : 
        Dipole               -0.1665 Ry au,         -0.4231 Debye
        Dipole field         -0.0003 Ry au, 
 
        Potential amp.        0.0291 Ry
        Total length         46.3494 bohr
 

     total cpu time spent up to now is    28395.1 secs

     total energy              =   -3332.74779149 Ry
     estimated scf accuracy    <       0.00039022 Ry

     total magnetization       =    -0.06 Bohr mag/cell
     absolute magnetization    =     0.45 Bohr mag/cell

     iteration #537     ecut=    36.75 Ry     beta= 0.05
     Davidson diagonalization with overlap
     ethr =  2.46E-10,  avg # of iterations = 10.1

     negative rho (up, down):  1.057E-02 1.043E-02
 
     Adding external electric field

     Computed dipole along edir(3) : 
        Dipole               -0.1663 Ry au,         -0.4228 Debye
        Dipole field         -0.0003 Ry au, 
 
        Potential amp.        0.0291 Ry
        Total length         46.3494 bohr
 
 
     Adding external electric field

     Computed dipole along edir(3) : 
        Dipole               -0.1663 Ry au,         -0.4228 Debye
        Dipole field         -0.0003 Ry au, 
 
        Potential amp.        0.0291 Ry
        Total length         46.3494 bohr
 

     total cpu time spent up to now is    28555.8 secs

     total energy              =   -3332.74779464 Ry
     estimated scf accuracy    <       0.00032388 Ry

     total magnetization       =    -0.09 Bohr mag/cell
     absolute magnetization    =     0.44 Bohr mag/cell

     iteration #538     ecut=    36.75 Ry     beta= 0.05
     Davidson diagonalization with overlap
     ethr =  2.46E-10,  avg # of iterations =  6.8

     negative rho (up, down):  1.060E-02 1.037E-02
 
     Adding external electric field

     Computed dipole along edir(3) : 
        Dipole               -0.1668 Ry au,         -0.4239 Debye
        Dipole field         -0.0003 Ry au, 
 
        Potential amp.        0.0292 Ry
        Total length         46.3494 bohr
 
 
     Adding external electric field

     Computed dipole along edir(3) : 
        Dipole               -0.1668 Ry au,         -0.4239 Debye
        Dipole field         -0.0003 Ry au, 
 
        Potential amp.        0.0292 Ry
        Total length         46.3494 bohr
 

     total cpu time spent up to now is    28581.6 secs

     total energy              =   -3332.74773004 Ry
     estimated scf accuracy    <       0.00030453 Ry

     total magnetization       =    -0.10 Bohr mag/cell
     absolute magnetization    =     0.43 Bohr mag/cell

     iteration #539     ecut=    36.75 Ry     beta= 0.05
     Davidson diagonalization with overlap
     c_bands:  1 eigenvalues not converged
     ethr =  2.46E-10,  avg # of iterations = 14.0

     negative rho (up, down):  1.058E-02 1.039E-02
 
     Adding external electric field

     Computed dipole along edir(3) : 
        Dipole               -0.1664 Ry au,         -0.4231 Debye
        Dipole field         -0.0003 Ry au, 
 
        Potential amp.        0.0291 Ry
        Total length         46.3494 bohr
 
 
     Adding external electric field

     Computed dipole along edir(3) : 
        Dipole               -0.1664 Ry au,         -0.4231 Debye
        Dipole field         -0.0003 Ry au, 
 
        Potential amp.        0.0291 Ry
        Total length         46.3494 bohr
 

     total cpu time spent up to now is    28679.3 secs

     total energy              =   -3332.74779038 Ry
     estimated scf accuracy    <       0.00000640 Ry

     total magnetization       =    -0.19 Bohr mag/cell
     absolute magnetization    =     0.36 Bohr mag/cell

     iteration #540     ecut=    36.75 Ry     beta= 0.05
     Davidson diagonalization with overlap
     ethr =  2.46E-10,  avg # of iterations =  8.0

     negative rho (up, down):  1.060E-02 1.037E-02
 
     Adding external electric field

     Computed dipole along edir(3) : 
        Dipole               -0.1668 Ry au,         -0.4240 Debye
        Dipole field         -0.0003 Ry au, 
 
        Potential amp.        0.0292 Ry
        Total length         46.3494 bohr
 
 
     Adding external electric field

     Computed dipole along edir(3) : 
        Dipole               -0.1668 Ry au,         -0.4240 Debye
        Dipole field         -0.0003 Ry au, 
 
        Potential amp.        0.0292 Ry
        Total length         46.3494 bohr
 

     total cpu time spent up to now is    28713.2 secs

     total energy              =   -3332.74779267 Ry
     estimated scf accuracy    <       0.00002751 Ry

     total magnetization       =    -0.16 Bohr mag/cell
     absolute magnetization    =     0.38 Bohr mag/cell

     iteration #541     ecut=    36.75 Ry     beta= 0.05
     Davidson diagonalization with overlap
     ethr =  2.46E-10,  avg # of iterations =  9.6

     negative rho (up, down):  1.062E-02 1.037E-02
 
     Adding external electric field

     Computed dipole along edir(3) : 
        Dipole               -0.1670 Ry au,         -0.4246 Debye
        Dipole field         -0.0003 Ry au, 
 
        Potential amp.        0.0292 Ry
        Total length         46.3494 bohr
 
 
     Adding external electric field

     Computed dipole along edir(3) : 
        Dipole               -0.1670 Ry au,         -0.4246 Debye
        Dipole field         -0.0003 Ry au, 
 
        Potential amp.        0.0292 Ry
        Total length         46.3494 bohr
 

     total cpu time spent up to now is    28753.0 secs

     total energy              =   -3332.74780291 Ry
     estimated scf accuracy    <       0.00000130 Ry

     total magnetization       =    -0.20 Bohr mag/cell
     absolute magnetization    =     0.36 Bohr mag/cell

     iteration #542     ecut=    36.75 Ry     beta= 0.05
     Davidson diagonalization with overlap
