
     Program PWSCF v.6.7GPU starts on 11Feb2022 at 19: 3:57 

     This program is part of the open-source Quantum ESPRESSO suite
     for quantum simulation of materials; please cite
         "P. Giannozzi et al., J. Phys.:Condens. Matter 21 395502 (2009);
         "P. Giannozzi et al., J. Phys.:Condens. Matter 29 465901 (2017);
         "P. Giannozzi et al., J. Chem. Phys. 152 154105 (2020);
          URL http://www.quantum-espresso.org", 
     in publications or presentations arising from this work. More details at
     http://www.quantum-espresso.org/quote

     Parallel version (MPI), running on    16 processors

     MPI processes distributed on     1 nodes
     R & G space division:  proc/nbgrp/npool/nimage =      16
     Reading input from /storage/coda1/p-amedford6/0/bchen380/B22/qe_3962619.sched-torque.pace.gatech.edu/pw.inp
Warning: card &CELL ignored
Warning: card   CELL_DYNAMICS='IPI', ignored
Warning: card / ignored

     Current dimensions of program PWSCF are:
     Max number of different atomic species (ntypx) = 10
     Max number of k-points (npk) =  40000
     Max angular momentum in pseudopotentials (lmaxx) =  3
     Message from routine cell_base_init:
     DEPRECATED: use true lattice parameter, not A to a.u. conversion factor
     file O.UPF: wavefunction(s)  2P renormalized

     **************************************************************************
     Initializing libbeef V0.1.2 with the BEEF-vdW functional.
     Citation: Wellendorff et al., PRB 85, 235149 (2012).
     **************************************************************************


     IMPORTANT: XC functional enforced from input :
     Exchange-correlation= BEEF-VDW
                           (   1   4  43  14   2   0   0)
     Any further DFT definition will be discarded
     Please, verify this is what you really want


     Subspace diagonalization in iterative solution of the eigenvalue problem:
     one sub-group per band group will be used
     scalapack distributed-memory algorithm (size of sub-group:  4*  4 procs)

  @ DRIVER MODE: Connecting to 
 qe_1064200_3962619.sched-torque.pace.gatech.edu5nrs6sf8_scratch
  using UNIX socket
  @ DRIVER MODE: Message from server: STATUS
  @ DRIVER MODE: Message from server: INIT
  @ DRIVER MODE: Receiving replica           0          -1
  @ DRIVER MODE: Receiving encoded integer          25
  @ DRIVER MODE:  SCF:  T  FORCE:  T  STRESS:  F  VC:  F  ENSEMBLE:  F
  @ DRIVER MODE:  SCF:  T  FORCE:  T  STRESS:  F  VC:  F  ENSEMBLE:  F
 
     Parallelization info
     --------------------
     sticks:   dense  smooth     PW     G-vecs:    dense   smooth      PW
     Min         256     102     28                49498    12526    1868
     Max         257     103     29                49510    12535    1881
     Sum        4097    1637    459               792059   200495   30031
 
     Using Slab Decomposition
 


     bravais-lattice index     =            0
     lattice parameter (alat)  =       1.8897  a.u.
     unit-cell volume          =    6658.9804 (a.u.)^3
     number of atoms/cell      =           48
     number of atomic types    =            3
     number of electrons       =       381.00
     number of Kohn-Sham states=          200
     kinetic-energy cutoff     =      36.7493  Ry
     charge density cutoff     =     367.4932  Ry
     scf convergence threshold =      7.3E-08
     mixing beta               =       0.0500
     number of iterations used =            8  plain     mixing
     Exchange-correlation= BEEF-VDW
                           (   1   4  43  14   2   0   0)

     celldm(1)=   1.889726  celldm(2)=   0.000000  celldm(3)=   0.000000
     celldm(4)=   0.000000  celldm(5)=   0.000000  celldm(6)=   0.000000

     crystal axes: (cart. coord. in units of alat)
               a(1) = (   6.579727   0.000000   0.000000 )  
               a(2) = (  -0.000775   5.961596   0.000000 )  
               a(3) = (   0.000000   0.000000  25.155947 )  

     reciprocal axes: (cart. coord. in units 2 pi/alat)
               b(1) = (  0.151982  0.000020  0.000000 )  
               b(2) = (  0.000000  0.167740  0.000000 )  
               b(3) = (  0.000000  0.000000  0.039752 )  


     PseudoPot. # 1 for Ti read from file:
     /storage/coda1/p-amedford6/0/shared/rich_project_chbe-medford/medford-share/data/pseudos_module/espresso/esp_pseudos_old/Ti.UPF
     MD5 check sum: 88a00a6731bd790ddea75d31a80cb452
     Pseudo is Ultrasoft + core correction, Zval = 12.0
     Generated by new atomic code, or converted to UPF format
     Using radial grid of  851 points,  6 beta functions with: 
                l(1) =   0
                l(2) =   0
                l(3) =   1
                l(4) =   1
                l(5) =   2
                l(6) =   2
     Q(r) pseudized with  6 coefficients,  rinner =    1.000   1.000   1.000
                                                       1.000   1.000

     PseudoPot. # 2 for O  read from file:
     /storage/coda1/p-amedford6/0/shared/rich_project_chbe-medford/medford-share/data/pseudos_module/espresso/esp_pseudos_old/O.UPF
     MD5 check sum: 0234752ac141de4415c5fc33072bef88
     Pseudo is Projector augmented-wave + core cor, Zval =  6.0
     Generated using "atomic" code by A. Dal Corso  v.5.0.99 svn rev. 10869
     Shape of augmentation charge: BESSEL
     Using radial grid of 1095 points,  4 beta functions with: 
                l(1) =   0
                l(2) =   0
                l(3) =   1
                l(4) =   1
     Q(r) pseudized with 0 coefficients 


     PseudoPot. # 3 for B  read from file:
     /storage/coda1/p-amedford6/0/shared/rich_project_chbe-medford/medford-share/data/pseudos_module/espresso/esp_pseudos_old/B.UPF
     MD5 check sum: cc6de2960df11db49a60e589f9ebb39b
     Pseudo is Ultrasoft + core correction, Zval =  3.0
     Generated by new atomic code, or converted to UPF format
     Using radial grid of  781 points,  4 beta functions with: 
                l(1) =   0
                l(2) =   0
                l(3) =   1
                l(4) =   1
     Q(r) pseudized with  8 coefficients,  rinner =    1.100   1.100   1.100


     atomic species   valence    mass     pseudopotential
        Ti1           12.00    47.86700     Ti( 1.00)
        O1             6.00    15.99900     O ( 1.00)
        B1             3.00    10.81000     B ( 1.00)

     Starting magnetic structure 
     atomic species   magnetization
        Ti1          0.000
        O1           0.000
        B1           0.000

     No symmetry found



   Cartesian axes

     site n.     atom                  positions (alat units)
         1           Ti1 tau(   1) = (   0.0004258   2.9801865   6.0000000  )
         2           Ti1 tau(   2) = (   3.2906075   1.4906267   6.0002472  )
         3           O1  tau(   3) = (   0.0006271   0.0005054   7.9858123  )
         4           O1  tau(   4) = (   3.2906025   0.0005020   7.3038282  )
         5           O1  tau(   5) = (   4.5942328   1.4918067   9.2879030  )
         6           O1  tau(   6) = (   1.9868534   1.4903216   9.2879459  )
         7           Ti1 tau(   7) = (   3.2905683   2.9818392   9.1597947  )
         8           Ti1 tau(   8) = (   0.0009689   1.5052867   9.3302970  )
         9           O1  tau(   9) = (   3.2907689   0.0016648  11.3563317  )
        10           O1  tau(  10) = (   0.0007044   0.0001637  10.5878211  )
        11           O1  tau(  11) = (   1.3004573   1.4911895  12.6196604  )
        12           O1  tau(  12) = (   5.2803146   1.4910465  12.6198809  )
        13           Ti1 tau(  13) = (   0.0003545   2.9813121  12.7572432  )
        14           Ti1 tau(  14) = (   3.2903971   1.4912328  12.5002874  )
        15           O1  tau(  15) = (  -0.0002320   5.9576404  14.5977444  )
        16           O1  tau(  16) = (   3.2901645   0.0058045  13.9855309  )
        17           O1  tau(  17) = (   4.5492778   1.5221801  16.1329724  )
        18           O1  tau(  18) = (   2.0311275   1.5222091  16.1330501  )
        19           Ti1 tau(  19) = (   3.2902041   2.9895352  15.7368220  )
        20           Ti1 tau(  20) = (   0.0001478   1.4235607  15.9669019  )
        21           O1  tau(  21) = (   3.2904802   0.0005063   4.7018136  )
        22           O1  tau(  22) = (   0.0000052   5.9613278  17.1620205  )
        23           O1  tau(  23) = (   1.3043587   1.4918075   6.0039043  )
        24           O1  tau(  24) = (   5.2767064   1.4903225   6.0039473  )
        25           Ti1 tau(  25) = (   0.0000382   5.9609847   6.0000000  )
        26           Ti1 tau(  26) = (   3.2902200   4.4714249   6.0002472  )
        27           O1  tau(  27) = (   0.0002396   2.9813036   7.9858123  )
        28           O1  tau(  28) = (   3.2902150   2.9813002   7.3038282  )
        29           O1  tau(  29) = (   4.5938453   4.4726049   9.2879030  )
        30           O1  tau(  30) = (   1.9864658   4.4711199   9.2879459  )
        31           Ti1 tau(  31) = (   3.2909982   0.0016570   9.1583503  )
        32           Ti1 tau(  32) = (   0.0005865   4.4518293   9.3323505  )
        33           O1  tau(  33) = (   3.2903422   2.9801403  11.3468332  )
        34           O1  tau(  34) = (   0.0003571   2.9798178  10.5649370  )
        35           O1  tau(  35) = (   1.3005412   4.4692167  12.6173387  )
        36           O1  tau(  36) = (   5.2794693   4.4690741  12.6175999  )
        37           Ti1 tau(  37) = (  -0.0000806   5.9612980  12.5816508  )
        38           Ti1 tau(  38) = (   3.2900041   4.4658170  12.4917948  )
        39           O1  tau(  39) = (   0.0004188   2.9814100  14.6485654  )
        40           O1  tau(  40) = (   3.2900918   2.9860882  13.9373905  )
        41           O1  tau(  41) = (   4.5492228   4.4522151  16.1330783  )
        42           O1  tau(  42) = (   2.0303863   4.4519659  16.1333203  )
        43           Ti1 tau(  43) = (   3.2899546   0.0061948  15.7807570  )
        44           Ti1 tau(  44) = (  -0.0001637   4.5606593  15.9768108  )
        45           O1  tau(  45) = (   3.2900926   2.9813045   4.7018136  )
        46           B1  tau(  46) = (   6.5792260   2.9590799  17.8640153  )
        47           O1  tau(  47) = (   1.3039711   4.4726057   6.0039043  )
        48           O1  tau(  48) = (   5.2763189   4.4711207   6.0039473  )

     number of k points=    10  Fermi-Dirac smearing, width (Ry)=  0.0007
                       cart. coord. in units 2pi/alat
        k(    1) = (   0.0000000   0.0000000   0.0000000), wk =   0.0625000
        k(    2) = (   0.0000000   0.0419351   0.0000000), wk =   0.1250000
        k(    3) = (   0.0000000  -0.0838702   0.0000000), wk =   0.0625000
        k(    4) = (   0.0379955   0.0000049   0.0000000), wk =   0.1250000
        k(    5) = (   0.0379955   0.0419400   0.0000000), wk =   0.1250000
        k(    6) = (   0.0379955  -0.0838652   0.0000000), wk =   0.1250000
        k(    7) = (   0.0379955  -0.0419301   0.0000000), wk =   0.1250000
        k(    8) = (  -0.0759910  -0.0000099   0.0000000), wk =   0.0625000
        k(    9) = (  -0.0759910   0.0419252   0.0000000), wk =   0.1250000
        k(   10) = (  -0.0759910  -0.0838800   0.0000000), wk =   0.0625000

     Dense  grid:   792059 G-vectors     FFT dimensions: (  75,  72, 300)

     Smooth grid:   200495 G-vectors     FFT dimensions: (  48,  45, 192)

     Estimated max dynamical RAM per process >     377.51 MB

     Estimated total dynamical RAM >       5.90 GB

     Check: negative core charge=   -0.000007
     Generating pointlists ...
     new r_m :   0.7405 (alat units)  1.3994 (a.u.) for type    1
     new r_m :   0.7405 (alat units)  1.3994 (a.u.) for type    2
     new r_m :   1.0068 (alat units)  1.9025 (a.u.) for type    3

     Initial potential from superposition of free atoms

     starting charge  364.99897, renormalised to  381.00000

     negative rho (up, down):  1.168E-02 1.168E-02


     %%%%%%%%%%%%%%%%%%%%%%%%%%%%%%%%%%%%%%%%%%%%%%%%%%%%%%%%%%%%%%%%%%%%%%%%
     %                                                                      %
     % You are using vdW-DF, which was implemented by the Thonhauser group. %
     % Please cite the following two papers that made this development      %
     % possible and the two reviews that describe the various versions:     %
     %                                                                      %
     %   T. Thonhauser et al., PRL 115, 136402 (2015).                      %
     %   T. Thonhauser et al., PRB 76, 125112 (2007).                       %
     %   K. Berland et al., Rep. Prog. Phys. 78, 066501 (2015).             %
     %   D.C. Langreth et al., J. Phys.: Condens. Matter 21, 084203 (2009). %
     %                                                                      %
     %                                                                      %
     % If you are calculating the stress with vdW-DF, please also cite:     %
     %                                                                      %
     %   R. Sabatini et al., J. Phys.: Condens. Matter 24, 424209 (2012).   %
     %                                                                      %
     %%%%%%%%%%%%%%%%%%%%%%%%%%%%%%%%%%%%%%%%%%%%%%%%%%%%%%%%%%%%%%%%%%%%%%%%


 
     Adding external electric field

     Computed dipole along edir(3) : 
        Dipole                0.4060 Ry au,          1.0319 Debye
        Dipole field          0.0008 Ry au, 
 
        Potential amp.       -0.0710 Ry
        Total length         46.3494 bohr
 
 
     Adding external electric field

     Computed dipole along edir(3) : 
        Dipole                0.4060 Ry au,          1.0319 Debye
        Dipole field          0.0008 Ry au, 
 
        Potential amp.       -0.0710 Ry
        Total length         46.3494 bohr
 
     Starting wfcs are  288 randomized atomic wfcs
     Checking if some PAW data can be deallocated... 
  @ DRIVER MODE: Message from server: STATUS
  @ DRIVER MODE: Message from server: POSDATA
  @ DRIVER MODE: Reading and sharing cell 
  @ DRIVER MODE: Reading and sharing positions 
  @ DRIVER MODE: Received positions 

     total cpu time spent up to now is       18.8 secs

     Self-consistent Calculation

     iteration #  1     ecut=    36.75 Ry     beta= 0.05
     Davidson diagonalization with overlap
     ethr =  1.00E-02,  avg # of iterations =  2.0

     negative rho (up, down):  1.193E-02 1.193E-02
 
     Adding external electric field

     Computed dipole along edir(3) : 
        Dipole               -0.0207 Ry au,         -0.0525 Debye
        Dipole field         -0.0000 Ry au, 
 
        Potential amp.        0.0036 Ry
        Total length         46.3494 bohr
 
 
     Adding external electric field

     Computed dipole along edir(3) : 
        Dipole               -0.0207 Ry au,         -0.0525 Debye
        Dipole field         -0.0000 Ry au, 
 
        Potential amp.        0.0036 Ry
        Total length         46.3494 bohr
 

     total cpu time spent up to now is       50.8 secs

     total energy              =   -3248.99032137 Ry
     estimated scf accuracy    <      12.32012598 Ry

     total magnetization       =    -0.00 Bohr mag/cell
     absolute magnetization    =     0.07 Bohr mag/cell

     iteration #  2     ecut=    36.75 Ry     beta= 0.05
     Davidson diagonalization with overlap
     ethr =  3.23E-03,  avg # of iterations =  1.0

     negative rho (up, down):  1.335E-02 1.335E-02
 
     Adding external electric field

     Computed dipole along edir(3) : 
        Dipole               -1.8237 Ry au,         -4.6353 Debye
        Dipole field         -0.0034 Ry au, 
 
        Potential amp.        0.3190 Ry
        Total length         46.3494 bohr
 
 
     Adding external electric field

     Computed dipole along edir(3) : 
        Dipole               -1.8237 Ry au,         -4.6353 Debye
        Dipole field         -0.0034 Ry au, 
 
        Potential amp.        0.3190 Ry
        Total length         46.3494 bohr
 

     total cpu time spent up to now is      147.5 secs

     total energy              =   -3245.35848511 Ry
     estimated scf accuracy    <       8.94411673 Ry

     total magnetization       =    -0.01 Bohr mag/cell
     absolute magnetization    =     0.07 Bohr mag/cell

     iteration #  3     ecut=    36.75 Ry     beta= 0.05
     Davidson diagonalization with overlap
     ethr =  2.35E-03,  avg # of iterations = 10.9

     negative rho (up, down):  1.341E-02 1.342E-02
 
     Adding external electric field

     Computed dipole along edir(3) : 
        Dipole               -1.6272 Ry au,         -4.1360 Debye
        Dipole field         -0.0031 Ry au, 
 
        Potential amp.        0.2847 Ry
        Total length         46.3494 bohr
 
 
     Adding external electric field

     Computed dipole along edir(3) : 
        Dipole               -1.6272 Ry au,         -4.1360 Debye
        Dipole field         -0.0031 Ry au, 
 
        Potential amp.        0.2847 Ry
        Total length         46.3494 bohr
 

     total cpu time spent up to now is      211.1 secs

     total energy              =   -3249.90295427 Ry
     estimated scf accuracy    <     309.94338042 Ry

     total magnetization       =     0.35 Bohr mag/cell
     absolute magnetization    =     0.46 Bohr mag/cell

     iteration #  4     ecut=    36.75 Ry     beta= 0.05
     Davidson diagonalization with overlap
     ethr =  2.35E-03,  avg # of iterations =  1.1

     negative rho (up, down):  1.355E-02 1.356E-02
 
     Adding external electric field

     Computed dipole along edir(3) : 
        Dipole               -1.4897 Ry au,         -3.7864 Debye
        Dipole field         -0.0028 Ry au, 
 
        Potential amp.        0.2606 Ry
        Total length         46.3494 bohr
 
 
     Adding external electric field

     Computed dipole along edir(3) : 
        Dipole               -1.4897 Ry au,         -3.7864 Debye
        Dipole field         -0.0028 Ry au, 
 
        Potential amp.        0.2606 Ry
        Total length         46.3494 bohr
 

     total cpu time spent up to now is      230.5 secs

     total energy              =   -3249.45452792 Ry
     estimated scf accuracy    <     253.35045661 Ry

     total magnetization       =     0.08 Bohr mag/cell
     absolute magnetization    =     0.27 Bohr mag/cell

     iteration #  5     ecut=    36.75 Ry     beta= 0.05
     Davidson diagonalization with overlap
     ethr =  2.35E-03,  avg # of iterations =  1.0

     negative rho (up, down):  1.325E-02 1.329E-02
 
     Adding external electric field

     Computed dipole along edir(3) : 
        Dipole               -0.8313 Ry au,         -2.1129 Debye
        Dipole field         -0.0016 Ry au, 
 
        Potential amp.        0.1454 Ry
        Total length         46.3494 bohr
 
 
     Adding external electric field

     Computed dipole along edir(3) : 
        Dipole               -0.8313 Ry au,         -2.1129 Debye
        Dipole field         -0.0016 Ry au, 
 
        Potential amp.        0.1454 Ry
        Total length         46.3494 bohr
 

     total cpu time spent up to now is      252.7 secs

     total energy              =   -3247.01762265 Ry
     estimated scf accuracy    <     210.83584638 Ry

     total magnetization       =     0.10 Bohr mag/cell
     absolute magnetization    =     0.22 Bohr mag/cell

     iteration #  6     ecut=    36.75 Ry     beta= 0.05
     Davidson diagonalization with overlap
     ethr =  2.35E-03,  avg # of iterations =  3.9

     negative rho (up, down):  1.315E-02 1.317E-02
 
     Adding external electric field

     Computed dipole along edir(3) : 
        Dipole               -0.6745 Ry au,         -1.7145 Debye
        Dipole field         -0.0013 Ry au, 
 
        Potential amp.        0.1180 Ry
        Total length         46.3494 bohr
 
 
     Adding external electric field

     Computed dipole along edir(3) : 
        Dipole               -0.6745 Ry au,         -1.7145 Debye
        Dipole field         -0.0013 Ry au, 
 
        Potential amp.        0.1180 Ry
        Total length         46.3494 bohr
 

     total cpu time spent up to now is      273.8 secs

     total energy              =   -3247.89720981 Ry
     estimated scf accuracy    <      35.56570110 Ry

     total magnetization       =     0.16 Bohr mag/cell
     absolute magnetization    =     0.33 Bohr mag/cell

     iteration #  7     ecut=    36.75 Ry     beta= 0.05
     Davidson diagonalization with overlap
     ethr =  2.35E-03,  avg # of iterations =  1.0

     negative rho (up, down):  1.317E-02 1.319E-02
 
     Adding external electric field

     Computed dipole along edir(3) : 
        Dipole               -0.7516 Ry au,         -1.9104 Debye
        Dipole field         -0.0014 Ry au, 
 
        Potential amp.        0.1315 Ry
        Total length         46.3494 bohr
 
 
     Adding external electric field

     Computed dipole along edir(3) : 
        Dipole               -0.7516 Ry au,         -1.9104 Debye
        Dipole field         -0.0014 Ry au, 
 
        Potential amp.        0.1315 Ry
        Total length         46.3494 bohr
 

     total cpu time spent up to now is      291.7 secs

     total energy              =   -3248.03972181 Ry
     estimated scf accuracy    <      33.63430530 Ry

     total magnetization       =     0.15 Bohr mag/cell
     absolute magnetization    =     0.29 Bohr mag/cell

     iteration #  8     ecut=    36.75 Ry     beta= 0.05
     Davidson diagonalization with overlap
     ethr =  2.35E-03,  avg # of iterations =  1.1

     negative rho (up, down):  1.280E-02 1.279E-02
 
     Adding external electric field

     Computed dipole along edir(3) : 
        Dipole               -0.3376 Ry au,         -0.8581 Debye
        Dipole field         -0.0006 Ry au, 
 
        Potential amp.        0.0591 Ry
        Total length         46.3494 bohr
 
 
     Adding external electric field

     Computed dipole along edir(3) : 
        Dipole               -0.3376 Ry au,         -0.8581 Debye
        Dipole field         -0.0006 Ry au, 
 
        Potential amp.        0.0591 Ry
        Total length         46.3494 bohr
 

     total cpu time spent up to now is      310.0 secs

     total energy              =   -3247.52288184 Ry
     estimated scf accuracy    <      33.14549178 Ry

     total magnetization       =     0.17 Bohr mag/cell
     absolute magnetization    =     0.28 Bohr mag/cell

     iteration #  9     ecut=    36.75 Ry     beta= 0.05
     Davidson diagonalization with overlap
     ethr =  2.35E-03,  avg # of iterations =  2.2

     negative rho (up, down):  1.280E-02 1.278E-02
 
     Adding external electric field

     Computed dipole along edir(3) : 
        Dipole               -0.3439 Ry au,         -0.8742 Debye
        Dipole field         -0.0006 Ry au, 
 
        Potential amp.        0.0602 Ry
        Total length         46.3494 bohr
 
 
     Adding external electric field

     Computed dipole along edir(3) : 
        Dipole               -0.3439 Ry au,         -0.8742 Debye
        Dipole field         -0.0006 Ry au, 
 
        Potential amp.        0.0602 Ry
        Total length         46.3494 bohr
 

     total cpu time spent up to now is      329.0 secs

     total energy              =   -3247.70979529 Ry
     estimated scf accuracy    <      27.32247936 Ry

     total magnetization       =    -0.04 Bohr mag/cell
     absolute magnetization    =     0.31 Bohr mag/cell

     iteration # 10     ecut=    36.75 Ry     beta= 0.05
     Davidson diagonalization with overlap
     ethr =  2.35E-03,  avg # of iterations =  1.0

     negative rho (up, down):  1.201E-02 1.191E-02
 
     Adding external electric field

     Computed dipole along edir(3) : 
        Dipole                0.7870 Ry au,          2.0004 Debye
        Dipole field          0.0015 Ry au, 
 
        Potential amp.       -0.1377 Ry
        Total length         46.3494 bohr
 
 
     Adding external electric field

     Computed dipole along edir(3) : 
        Dipole                0.7870 Ry au,          2.0004 Debye
        Dipole field          0.0015 Ry au, 
 
        Potential amp.       -0.1377 Ry
        Total length         46.3494 bohr
 

     total cpu time spent up to now is      347.0 secs

     total energy              =   -3247.01950494 Ry
     estimated scf accuracy    <      27.01361704 Ry

     total magnetization       =    -0.04 Bohr mag/cell
     absolute magnetization    =     0.31 Bohr mag/cell

     iteration # 11     ecut=    36.75 Ry     beta= 0.05
     Davidson diagonalization with overlap
     c_bands:  1 eigenvalues not converged
     c_bands:  1 eigenvalues not converged
     c_bands:  2 eigenvalues not converged
     c_bands:  4 eigenvalues not converged
     c_bands:  2 eigenvalues not converged
     c_bands:  2 eigenvalues not converged
     ethr =  2.35E-03,  avg # of iterations = 13.4

     negative rho (up, down):  1.184E-02 1.169E-02
 
     Adding external electric field

     Computed dipole along edir(3) : 
        Dipole                1.0842 Ry au,          2.7559 Debye
        Dipole field          0.0020 Ry au, 
 
        Potential amp.       -0.1897 Ry
        Total length         46.3494 bohr
 
 
     Adding external electric field

     Computed dipole along edir(3) : 
        Dipole                1.0842 Ry au,          2.7559 Debye
        Dipole field          0.0020 Ry au, 
 
        Potential amp.       -0.1897 Ry
        Total length         46.3494 bohr
 

     total cpu time spent up to now is      378.6 secs

     total energy              =   -3248.48613561 Ry
     estimated scf accuracy    <       4.05207674 Ry

     total magnetization       =    -0.28 Bohr mag/cell
     absolute magnetization    =     0.40 Bohr mag/cell

     iteration # 12     ecut=    36.75 Ry     beta= 0.05
     Davidson diagonalization with overlap
     ethr =  1.06E-03,  avg # of iterations =  7.1

     negative rho (up, down):  1.182E-02 1.161E-02
 
     Adding external electric field

     Computed dipole along edir(3) : 
        Dipole                1.1408 Ry au,          2.8996 Debye
        Dipole field          0.0022 Ry au, 
 
        Potential amp.       -0.1996 Ry
        Total length         46.3494 bohr
 
 
     Adding external electric field

     Computed dipole along edir(3) : 
        Dipole                1.1408 Ry au,          2.8996 Debye
        Dipole field          0.0022 Ry au, 
 
        Potential amp.       -0.1996 Ry
        Total length         46.3494 bohr
 

     total cpu time spent up to now is      406.3 secs

     total energy              =   -3248.20157805 Ry
     estimated scf accuracy    <       4.06524168 Ry

     total magnetization       =    -0.30 Bohr mag/cell
     absolute magnetization    =     0.36 Bohr mag/cell

     iteration # 13     ecut=    36.75 Ry     beta= 0.05
     Davidson diagonalization with overlap
     c_bands:  1 eigenvalues not converged
     ethr =  1.06E-03,  avg # of iterations =  3.9

     negative rho (up, down):  1.177E-02 1.153E-02
 
     Adding external electric field

     Computed dipole along edir(3) : 
        Dipole                1.0560 Ry au,          2.6842 Debye
        Dipole field          0.0020 Ry au, 
 
        Potential amp.       -0.1847 Ry
        Total length         46.3494 bohr
 
 
     Adding external electric field

     Computed dipole along edir(3) : 
        Dipole                1.0560 Ry au,          2.6842 Debye
        Dipole field          0.0020 Ry au, 
 
        Potential amp.       -0.1847 Ry
        Total length         46.3494 bohr
 

     total cpu time spent up to now is      426.0 secs

     total energy              =   -3248.00000012 Ry
     estimated scf accuracy    <       3.56362491 Ry

     total magnetization       =    -0.35 Bohr mag/cell
     absolute magnetization    =     0.40 Bohr mag/cell

     iteration # 14     ecut=    36.75 Ry     beta= 0.05
     Davidson diagonalization with overlap
     ethr =  9.35E-04,  avg # of iterations =  1.2

     negative rho (up, down):  1.170E-02 1.144E-02
 
     Adding external electric field

     Computed dipole along edir(3) : 
        Dipole                1.0724 Ry au,          2.7259 Debye
        Dipole field          0.0020 Ry au, 
 
        Potential amp.       -0.1876 Ry
        Total length         46.3494 bohr
 
 
     Adding external electric field

     Computed dipole along edir(3) : 
        Dipole                1.0724 Ry au,          2.7259 Debye
        Dipole field          0.0020 Ry au, 
 
        Potential amp.       -0.1876 Ry
        Total length         46.3494 bohr
 

     total cpu time spent up to now is      443.3 secs

     total energy              =   -3247.92285663 Ry
     estimated scf accuracy    <       2.31250639 Ry

     total magnetization       =    -0.29 Bohr mag/cell
     absolute magnetization    =     0.35 Bohr mag/cell

     iteration # 15     ecut=    36.75 Ry     beta= 0.05
     Davidson diagonalization with overlap
     ethr =  6.07E-04,  avg # of iterations =  2.9

     negative rho (up, down):  1.150E-02 1.126E-02
 
     Adding external electric field

     Computed dipole along edir(3) : 
        Dipole                1.1022 Ry au,          2.8016 Debye
        Dipole field          0.0021 Ry au, 
 
        Potential amp.       -0.1928 Ry
        Total length         46.3494 bohr
 
 
     Adding external electric field

     Computed dipole along edir(3) : 
        Dipole                1.1022 Ry au,          2.8016 Debye
        Dipole field          0.0021 Ry au, 
 
        Potential amp.       -0.1928 Ry
        Total length         46.3494 bohr
 

     total cpu time spent up to now is      462.4 secs

     total energy              =   -3247.99725690 Ry
     estimated scf accuracy    <       3.02566989 Ry

     total magnetization       =    -0.13 Bohr mag/cell
     absolute magnetization    =     0.28 Bohr mag/cell

     iteration # 16     ecut=    36.75 Ry     beta= 0.05
     Davidson diagonalization with overlap
     ethr =  6.07E-04,  avg # of iterations =  2.2

     negative rho (up, down):  1.149E-02 1.127E-02
 
     Adding external electric field

     Computed dipole along edir(3) : 
        Dipole                0.9674 Ry au,          2.4588 Debye
        Dipole field          0.0018 Ry au, 
 
        Potential amp.       -0.1692 Ry
        Total length         46.3494 bohr
 
 
     Adding external electric field

     Computed dipole along edir(3) : 
        Dipole                0.9674 Ry au,          2.4588 Debye
        Dipole field          0.0018 Ry au, 
 
        Potential amp.       -0.1692 Ry
        Total length         46.3494 bohr
 

     total cpu time spent up to now is      480.8 secs

     total energy              =   -3247.94297551 Ry
     estimated scf accuracy    <       2.34402362 Ry

     total magnetization       =    -0.21 Bohr mag/cell
     absolute magnetization    =     0.28 Bohr mag/cell

     iteration # 17     ecut=    36.75 Ry     beta= 0.05
     Davidson diagonalization with overlap
     ethr =  6.07E-04,  avg # of iterations =  2.3

     negative rho (up, down):  1.143E-02 1.121E-02
 
     Adding external electric field

     Computed dipole along edir(3) : 
        Dipole                1.0370 Ry au,          2.6359 Debye
        Dipole field          0.0020 Ry au, 
 
        Potential amp.       -0.1814 Ry
        Total length         46.3494 bohr
 
 
     Adding external electric field

     Computed dipole along edir(3) : 
        Dipole                1.0370 Ry au,          2.6359 Debye
        Dipole field          0.0020 Ry au, 
 
        Potential amp.       -0.1814 Ry
        Total length         46.3494 bohr
 

     total cpu time spent up to now is      505.5 secs

     total energy              =   -3247.95463591 Ry
     estimated scf accuracy    <       1.43439563 Ry

     total magnetization       =     0.01 Bohr mag/cell
     absolute magnetization    =     0.31 Bohr mag/cell

     iteration # 18     ecut=    36.75 Ry     beta= 0.05
     Davidson diagonalization with overlap
     c_bands:  1 eigenvalues not converged
     ethr =  3.76E-04,  avg # of iterations =  5.2

     negative rho (up, down):  1.159E-02 1.151E-02
 
     Adding external electric field

     Computed dipole along edir(3) : 
        Dipole                0.9023 Ry au,          2.2934 Debye
        Dipole field          0.0017 Ry au, 
 
        Potential amp.       -0.1578 Ry
        Total length         46.3494 bohr
 
 
     Adding external electric field

     Computed dipole along edir(3) : 
        Dipole                0.9023 Ry au,          2.2934 Debye
        Dipole field          0.0017 Ry au, 
 
        Potential amp.       -0.1578 Ry
        Total length         46.3494 bohr
 

     total cpu time spent up to now is      549.9 secs

     total energy              =   -3247.84279816 Ry
     estimated scf accuracy    <       1.65266171 Ry

     total magnetization       =    -0.23 Bohr mag/cell
     absolute magnetization    =     0.41 Bohr mag/cell

     iteration # 19     ecut=    36.75 Ry     beta= 0.05
     Davidson diagonalization with overlap
     ethr =  3.76E-04,  avg # of iterations =  3.1

     negative rho (up, down):  1.199E-02 1.214E-02
 
     Adding external electric field

     Computed dipole along edir(3) : 
        Dipole                0.1219 Ry au,          0.3098 Debye
        Dipole field          0.0002 Ry au, 
 
        Potential amp.       -0.0213 Ry
        Total length         46.3494 bohr
 
 
     Adding external electric field

     Computed dipole along edir(3) : 
        Dipole                0.1219 Ry au,          0.3098 Debye
        Dipole field          0.0002 Ry au, 
 
        Potential amp.       -0.0213 Ry
        Total length         46.3494 bohr
 

     total cpu time spent up to now is      569.4 secs

     total energy              =   -3247.79930847 Ry
     estimated scf accuracy    <       1.52415535 Ry

     total magnetization       =    -0.62 Bohr mag/cell
     absolute magnetization    =     0.70 Bohr mag/cell

     iteration # 20     ecut=    36.75 Ry     beta= 0.05
     Davidson diagonalization with overlap
     ethr =  3.76E-04,  avg # of iterations = 11.2

     negative rho (up, down):  1.181E-02 1.188E-02
 
     Adding external electric field

     Computed dipole along edir(3) : 
        Dipole                0.1382 Ry au,          0.3511 Debye
        Dipole field          0.0003 Ry au, 
 
        Potential amp.       -0.0242 Ry
        Total length         46.3494 bohr
 
 
     Adding external electric field

     Computed dipole along edir(3) : 
        Dipole                0.1382 Ry au,          0.3511 Debye
        Dipole field          0.0003 Ry au, 
 
        Potential amp.       -0.0242 Ry
        Total length         46.3494 bohr
 

     total cpu time spent up to now is      596.4 secs

     total energy              =   -3247.80483681 Ry
     estimated scf accuracy    <       0.63752084 Ry

     total magnetization       =    -0.67 Bohr mag/cell
     absolute magnetization    =     0.84 Bohr mag/cell

     iteration # 21     ecut=    36.75 Ry     beta= 0.05
     Davidson diagonalization with overlap
     ethr =  1.67E-04,  avg # of iterations =  5.6

     negative rho (up, down):  1.142E-02 1.135E-02
 
     Adding external electric field

     Computed dipole along edir(3) : 
        Dipole                0.6459 Ry au,          1.6417 Debye
        Dipole field          0.0012 Ry au, 
 
        Potential amp.       -0.1130 Ry
        Total length         46.3494 bohr
 
 
     Adding external electric field

     Computed dipole along edir(3) : 
        Dipole                0.6459 Ry au,          1.6417 Debye
        Dipole field          0.0012 Ry au, 
 
        Potential amp.       -0.1130 Ry
        Total length         46.3494 bohr
 

     total cpu time spent up to now is      619.4 secs

     total energy              =   -3247.79970239 Ry
     estimated scf accuracy    <       0.30460504 Ry

     total magnetization       =    -0.46 Bohr mag/cell
     absolute magnetization    =     0.62 Bohr mag/cell

     iteration # 22     ecut=    36.75 Ry     beta= 0.05
     Davidson diagonalization with overlap
     c_bands:  2 eigenvalues not converged
     ethr =  7.99E-05,  avg # of iterations = 15.1

     negative rho (up, down):  1.136E-02 1.126E-02
 
     Adding external electric field

     Computed dipole along edir(3) : 
        Dipole                0.2791 Ry au,          0.7094 Debye
        Dipole field          0.0005 Ry au, 
 
        Potential amp.       -0.0488 Ry
        Total length         46.3494 bohr
 
 
     Adding external electric field

     Computed dipole along edir(3) : 
        Dipole                0.2791 Ry au,          0.7094 Debye
        Dipole field          0.0005 Ry au, 
 
        Potential amp.       -0.0488 Ry
        Total length         46.3494 bohr
 

     total cpu time spent up to now is      665.7 secs

     total energy              =   -3247.80775029 Ry
     estimated scf accuracy    <       0.89202106 Ry

     total magnetization       =    -0.98 Bohr mag/cell
     absolute magnetization    =     1.08 Bohr mag/cell

     iteration # 23     ecut=    36.75 Ry     beta= 0.05
     Davidson diagonalization with overlap
     c_bands:  3 eigenvalues not converged
     c_bands:  1 eigenvalues not converged
     c_bands:  1 eigenvalues not converged
     c_bands:  1 eigenvalues not converged
     c_bands:  1 eigenvalues not converged
     ethr =  7.99E-05,  avg # of iterations = 15.6

     negative rho (up, down):  1.142E-02 1.140E-02
 
     Adding external electric field

     Computed dipole along edir(3) : 
        Dipole                0.0209 Ry au,          0.0530 Debye
        Dipole field          0.0000 Ry au, 
 
        Potential amp.       -0.0036 Ry
        Total length         46.3494 bohr
 
 
     Adding external electric field

     Computed dipole along edir(3) : 
        Dipole                0.0209 Ry au,          0.0530 Debye
        Dipole field          0.0000 Ry au, 
 
        Potential amp.       -0.0036 Ry
        Total length         46.3494 bohr
 

     total cpu time spent up to now is      704.7 secs

     total energy              =   -3247.78968153 Ry
     estimated scf accuracy    <       0.29930493 Ry

     total magnetization       =    -0.41 Bohr mag/cell
     absolute magnetization    =     0.51 Bohr mag/cell

     iteration # 24     ecut=    36.75 Ry     beta= 0.05
     Davidson diagonalization with overlap
     c_bands:  1 eigenvalues not converged
     c_bands:  1 eigenvalues not converged
     c_bands:  3 eigenvalues not converged
     c_bands:  1 eigenvalues not converged
     c_bands:  1 eigenvalues not converged
     c_bands:  3 eigenvalues not converged
     c_bands:  2 eigenvalues not converged
     c_bands:  2 eigenvalues not converged
     c_bands:  1 eigenvalues not converged
     c_bands:  2 eigenvalues not converged
     c_bands:  2 eigenvalues not converged
     ethr =  7.86E-05,  avg # of iterations = 17.6

     negative rho (up, down):  1.154E-02 1.154E-02
 
     Adding external electric field

     Computed dipole along edir(3) : 
        Dipole                0.0051 Ry au,          0.0130 Debye
        Dipole field          0.0000 Ry au, 
 
        Potential amp.       -0.0009 Ry
        Total length         46.3494 bohr
 
 
     Adding external electric field

     Computed dipole along edir(3) : 
        Dipole                0.0051 Ry au,          0.0130 Debye
        Dipole field          0.0000 Ry au, 
 
        Potential amp.       -0.0009 Ry
        Total length         46.3494 bohr
 

     total cpu time spent up to now is      747.8 secs

     total energy              =   -3247.83471386 Ry
     estimated scf accuracy    <       6.05883141 Ry

     total magnetization       =    -0.71 Bohr mag/cell
     absolute magnetization    =     0.81 Bohr mag/cell

     iteration # 25     ecut=    36.75 Ry     beta= 0.05
     Davidson diagonalization with overlap
     c_bands:  1 eigenvalues not converged
     ethr =  7.86E-05,  avg # of iterations =  4.2

     negative rho (up, down):  1.158E-02 1.158E-02
 
     Adding external electric field

     Computed dipole along edir(3) : 
        Dipole               -0.0555 Ry au,         -0.1412 Debye
        Dipole field         -0.0001 Ry au, 
 
        Potential amp.        0.0097 Ry
        Total length         46.3494 bohr
 
 
     Adding external electric field

     Computed dipole along edir(3) : 
        Dipole               -0.0555 Ry au,         -0.1412 Debye
        Dipole field         -0.0001 Ry au, 
 
        Potential amp.        0.0097 Ry
        Total length         46.3494 bohr
 

     total cpu time spent up to now is      771.6 secs

     total energy              =   -3247.86415069 Ry
     estimated scf accuracy    <       5.87001867 Ry

     total magnetization       =    -0.67 Bohr mag/cell
     absolute magnetization    =     0.76 Bohr mag/cell

     iteration # 26     ecut=    36.75 Ry     beta= 0.05
     Davidson diagonalization with overlap
     ethr =  7.86E-05,  avg # of iterations =  1.8

     negative rho (up, down):  1.164E-02 1.164E-02
 
     Adding external electric field

     Computed dipole along edir(3) : 
        Dipole               -0.0588 Ry au,         -0.1495 Debye
        Dipole field         -0.0001 Ry au, 
 
        Potential amp.        0.0103 Ry
        Total length         46.3494 bohr
 
 
     Adding external electric field

     Computed dipole along edir(3) : 
        Dipole               -0.0588 Ry au,         -0.1495 Debye
        Dipole field         -0.0001 Ry au, 
 
        Potential amp.        0.0103 Ry
        Total length         46.3494 bohr
 

     total cpu time spent up to now is      790.0 secs

     total energy              =   -3247.87122496 Ry
     estimated scf accuracy    <      11.07350845 Ry

     total magnetization       =     0.03 Bohr mag/cell
     absolute magnetization    =     0.30 Bohr mag/cell

     iteration # 27     ecut=    36.75 Ry     beta= 0.05
     Davidson diagonalization with overlap
     ethr =  7.86E-05,  avg # of iterations =  1.0

     negative rho (up, down):  1.170E-02 1.170E-02
 
     Adding external electric field

     Computed dipole along edir(3) : 
        Dipole               -0.0234 Ry au,         -0.0595 Debye
        Dipole field         -0.0000 Ry au, 
 
        Potential amp.        0.0041 Ry
        Total length         46.3494 bohr
 
 
     Adding external electric field

     Computed dipole along edir(3) : 
        Dipole               -0.0234 Ry au,         -0.0595 Debye
        Dipole field         -0.0000 Ry au, 
 
        Potential amp.        0.0041 Ry
        Total length         46.3494 bohr
 

     total cpu time spent up to now is      807.5 secs

     total energy              =   -3247.85298969 Ry
     estimated scf accuracy    <      11.25918457 Ry

     total magnetization       =     0.04 Bohr mag/cell
     absolute magnetization    =     0.29 Bohr mag/cell

     iteration # 28     ecut=    36.75 Ry     beta= 0.05
     Davidson diagonalization with overlap
     ethr =  7.86E-05,  avg # of iterations =  1.0

     negative rho (up, down):  1.165E-02 1.160E-02
 
     Adding external electric field

     Computed dipole along edir(3) : 
        Dipole                0.2084 Ry au,          0.5297 Debye
        Dipole field          0.0004 Ry au, 
 
        Potential amp.       -0.0365 Ry
        Total length         46.3494 bohr
 
 
     Adding external electric field

     Computed dipole along edir(3) : 
        Dipole                0.2084 Ry au,          0.5297 Debye
        Dipole field          0.0004 Ry au, 
 
        Potential amp.       -0.0365 Ry
        Total length         46.3494 bohr
 

     total cpu time spent up to now is      825.9 secs

     total energy              =   -3247.77532008 Ry
     estimated scf accuracy    <       7.77700053 Ry

     total magnetization       =    -0.49 Bohr mag/cell
     absolute magnetization    =     0.61 Bohr mag/cell

     iteration # 29     ecut=    36.75 Ry     beta= 0.05
     Davidson diagonalization with overlap
     ethr =  7.86E-05,  avg # of iterations =  1.4

     negative rho (up, down):  1.166E-02 1.162E-02
 
     Adding external electric field

     Computed dipole along edir(3) : 
        Dipole                0.0477 Ry au,          0.1213 Debye
        Dipole field          0.0001 Ry au, 
 
        Potential amp.       -0.0083 Ry
        Total length         46.3494 bohr
 
 
     Adding external electric field

     Computed dipole along edir(3) : 
        Dipole                0.0477 Ry au,          0.1213 Debye
        Dipole field          0.0001 Ry au, 
 
        Potential amp.       -0.0083 Ry
        Total length         46.3494 bohr
 

     total cpu time spent up to now is      846.9 secs

     total energy              =   -3247.81250487 Ry
     estimated scf accuracy    <       0.14637303 Ry

     total magnetization       =    -0.84 Bohr mag/cell
     absolute magnetization    =     0.92 Bohr mag/cell

     iteration # 30     ecut=    36.75 Ry     beta= 0.05
     Davidson diagonalization with overlap
     ethr =  3.84E-05,  avg # of iterations =  2.0

     negative rho (up, down):  1.172E-02 1.170E-02
 
     Adding external electric field

     Computed dipole along edir(3) : 
        Dipole                0.0599 Ry au,          0.1522 Debye
        Dipole field          0.0001 Ry au, 
 
        Potential amp.       -0.0105 Ry
        Total length         46.3494 bohr
 
 
     Adding external electric field

     Computed dipole along edir(3) : 
        Dipole                0.0599 Ry au,          0.1522 Debye
        Dipole field          0.0001 Ry au, 
 
        Potential amp.       -0.0105 Ry
        Total length         46.3494 bohr
 

     total cpu time spent up to now is      865.6 secs

     total energy              =   -3247.81868680 Ry
     estimated scf accuracy    <       5.87611542 Ry

     total magnetization       =    -0.51 Bohr mag/cell
     absolute magnetization    =     0.66 Bohr mag/cell

     iteration # 31     ecut=    36.75 Ry     beta= 0.05
     Davidson diagonalization with overlap
     c_bands:  3 eigenvalues not converged
     c_bands:  1 eigenvalues not converged
     ethr =  3.84E-05,  avg # of iterations =  8.3

     negative rho (up, down):  1.155E-02 1.149E-02
 
     Adding external electric field

     Computed dipole along edir(3) : 
        Dipole                0.1335 Ry au,          0.3393 Debye
        Dipole field          0.0003 Ry au, 
 
        Potential amp.       -0.0233 Ry
        Total length         46.3494 bohr
 
 
     Adding external electric field

     Computed dipole along edir(3) : 
        Dipole                0.1335 Ry au,          0.3393 Debye
        Dipole field          0.0003 Ry au, 
 
        Potential amp.       -0.0233 Ry
        Total length         46.3494 bohr
 

     total cpu time spent up to now is      894.4 secs

     total energy              =   -3247.80271415 Ry
     estimated scf accuracy    <       1.86243285 Ry

     total magnetization       =    -0.42 Bohr mag/cell
     absolute magnetization    =     0.66 Bohr mag/cell

     iteration # 32     ecut=    36.75 Ry     beta= 0.05
     Davidson diagonalization with overlap
     c_bands:  2 eigenvalues not converged
     ethr =  3.84E-05,  avg # of iterations =  7.8

     negative rho (up, down):  1.144E-02 1.137E-02
 
     Adding external electric field

     Computed dipole along edir(3) : 
        Dipole                0.1229 Ry au,          0.3125 Debye
        Dipole field          0.0002 Ry au, 
 
        Potential amp.       -0.0215 Ry
        Total length         46.3494 bohr
 
 
     Adding external electric field

     Computed dipole along edir(3) : 
        Dipole                0.1229 Ry au,          0.3125 Debye
        Dipole field          0.0002 Ry au, 
 
        Potential amp.       -0.0215 Ry
        Total length         46.3494 bohr
 

     total cpu time spent up to now is      919.1 secs

     total energy              =   -3247.82454371 Ry
     estimated scf accuracy    <       0.12122998 Ry

     total magnetization       =    -0.82 Bohr mag/cell
     absolute magnetization    =     0.90 Bohr mag/cell

     iteration # 33     ecut=    36.75 Ry     beta= 0.05
     Davidson diagonalization with overlap
     c_bands:  1 eigenvalues not converged
     ethr =  3.18E-05,  avg # of iterations =  4.3

     negative rho (up, down):  1.141E-02 1.135E-02
 
     Adding external electric field

     Computed dipole along edir(3) : 
        Dipole                0.1299 Ry au,          0.3301 Debye
        Dipole field          0.0002 Ry au, 
 
        Potential amp.       -0.0227 Ry
        Total length         46.3494 bohr
 
 
     Adding external electric field

     Computed dipole along edir(3) : 
        Dipole                0.1299 Ry au,          0.3301 Debye
        Dipole field          0.0002 Ry au, 
 
        Potential amp.       -0.0227 Ry
        Total length         46.3494 bohr
 

     total cpu time spent up to now is      966.6 secs

     total energy              =   -3247.82315435 Ry
     estimated scf accuracy    <       0.22262921 Ry

     total magnetization       =    -0.86 Bohr mag/cell
     absolute magnetization    =     0.97 Bohr mag/cell

     iteration # 34     ecut=    36.75 Ry     beta= 0.05
     Davidson diagonalization with overlap
     ethr =  3.18E-05,  avg # of iterations =  1.7

     negative rho (up, down):  1.137E-02 1.130E-02
 
     Adding external electric field

     Computed dipole along edir(3) : 
        Dipole                0.1120 Ry au,          0.2846 Debye
        Dipole field          0.0002 Ry au, 
 
        Potential amp.       -0.0196 Ry
        Total length         46.3494 bohr
 
 
     Adding external electric field

     Computed dipole along edir(3) : 
        Dipole                0.1120 Ry au,          0.2846 Debye
        Dipole field          0.0002 Ry au, 
 
        Potential amp.       -0.0196 Ry
        Total length         46.3494 bohr
 

     total cpu time spent up to now is      998.5 secs

     total energy              =   -3247.82145044 Ry
     estimated scf accuracy    <       0.12169352 Ry

     total magnetization       =    -1.15 Bohr mag/cell
     absolute magnetization    =     1.22 Bohr mag/cell

     iteration # 35     ecut=    36.75 Ry     beta= 0.05
     Davidson diagonalization with overlap
     c_bands:  1 eigenvalues not converged
     c_bands:  1 eigenvalues not converged
     c_bands:  1 eigenvalues not converged
     c_bands:  1 eigenvalues not converged
     ethr =  3.18E-05,  avg # of iterations = 10.5

     negative rho (up, down):  1.129E-02 1.119E-02
 
     Adding external electric field

     Computed dipole along edir(3) : 
        Dipole                0.1545 Ry au,          0.3926 Debye
        Dipole field          0.0003 Ry au, 
 
        Potential amp.       -0.0270 Ry
        Total length         46.3494 bohr
 
 
     Adding external electric field

     Computed dipole along edir(3) : 
        Dipole                0.1545 Ry au,          0.3926 Debye
        Dipole field          0.0003 Ry au, 
 
        Potential amp.       -0.0270 Ry
        Total length         46.3494 bohr
 

     total cpu time spent up to now is     1023.1 secs

     total energy              =   -3247.81627163 Ry
     estimated scf accuracy    <       0.11934127 Ry

     total magnetization       =    -1.47 Bohr mag/cell
     absolute magnetization    =     1.55 Bohr mag/cell

     iteration # 36     ecut=    36.75 Ry     beta= 0.05
     Davidson diagonalization with overlap
     ethr =  3.13E-05,  avg # of iterations =  4.3

     negative rho (up, down):  1.130E-02 1.121E-02
 
     Adding external electric field

     Computed dipole along edir(3) : 
        Dipole                0.1395 Ry au,          0.3545 Debye
        Dipole field          0.0003 Ry au, 
 
        Potential amp.       -0.0244 Ry
        Total length         46.3494 bohr
 
 
     Adding external electric field

     Computed dipole along edir(3) : 
        Dipole                0.1395 Ry au,          0.3545 Debye
        Dipole field          0.0003 Ry au, 
 
        Potential amp.       -0.0244 Ry
        Total length         46.3494 bohr
 

     total cpu time spent up to now is     1043.8 secs

     total energy              =   -3247.81527542 Ry
     estimated scf accuracy    <       0.09924517 Ry

     total magnetization       =    -1.38 Bohr mag/cell
     absolute magnetization    =     1.45 Bohr mag/cell

     iteration # 37     ecut=    36.75 Ry     beta= 0.05
     Davidson diagonalization with overlap
     ethr =  2.60E-05,  avg # of iterations =  2.5

     negative rho (up, down):  1.118E-02 1.102E-02
 
     Adding external electric field

     Computed dipole along edir(3) : 
        Dipole                0.1663 Ry au,          0.4227 Debye
        Dipole field          0.0003 Ry au, 
 
        Potential amp.       -0.0291 Ry
        Total length         46.3494 bohr
 
 
     Adding external electric field

     Computed dipole along edir(3) : 
        Dipole                0.1663 Ry au,          0.4227 Debye
        Dipole field          0.0003 Ry au, 
 
        Potential amp.       -0.0291 Ry
        Total length         46.3494 bohr
 

     total cpu time spent up to now is     1065.6 secs

     total energy              =   -3247.81499588 Ry
     estimated scf accuracy    <       0.05323405 Ry

     total magnetization       =    -1.30 Bohr mag/cell
     absolute magnetization    =     1.38 Bohr mag/cell

     iteration # 38     ecut=    36.75 Ry     beta= 0.05
     Davidson diagonalization with overlap
     c_bands:  1 eigenvalues not converged
     c_bands:  1 eigenvalues not converged
     c_bands:  4 eigenvalues not converged
     c_bands:  3 eigenvalues not converged
     c_bands:  1 eigenvalues not converged
     c_bands:  1 eigenvalues not converged
     c_bands:  2 eigenvalues not converged
     c_bands:  2 eigenvalues not converged
     c_bands:  1 eigenvalues not converged
     c_bands:  1 eigenvalues not converged
     ethr =  1.40E-05,  avg # of iterations = 17.6

     negative rho (up, down):  1.117E-02 1.102E-02
 
     Adding external electric field

     Computed dipole along edir(3) : 
        Dipole                0.1476 Ry au,          0.3751 Debye
        Dipole field          0.0003 Ry au, 
 
        Potential amp.       -0.0258 Ry
        Total length         46.3494 bohr
 
 
     Adding external electric field

     Computed dipole along edir(3) : 
        Dipole                0.1476 Ry au,          0.3751 Debye
        Dipole field          0.0003 Ry au, 
 
        Potential amp.       -0.0258 Ry
        Total length         46.3494 bohr
 

     total cpu time spent up to now is     1119.4 secs

     total energy              =   -3247.81974594 Ry
     estimated scf accuracy    <       0.13229735 Ry

     total magnetization       =    -1.45 Bohr mag/cell
     absolute magnetization    =     1.67 Bohr mag/cell

     iteration # 39     ecut=    36.75 Ry     beta= 0.05
     Davidson diagonalization with overlap
     c_bands:  1 eigenvalues not converged
     ethr =  1.40E-05,  avg # of iterations =  4.9

     negative rho (up, down):  1.116E-02 1.102E-02
 
     Adding external electric field

     Computed dipole along edir(3) : 
        Dipole                0.1526 Ry au,          0.3878 Debye
        Dipole field          0.0003 Ry au, 
 
        Potential amp.       -0.0267 Ry
        Total length         46.3494 bohr
 
 
     Adding external electric field

     Computed dipole along edir(3) : 
        Dipole                0.1526 Ry au,          0.3878 Debye
        Dipole field          0.0003 Ry au, 
 
        Potential amp.       -0.0267 Ry
        Total length         46.3494 bohr
 

     total cpu time spent up to now is     1147.9 secs

     total energy              =   -3247.82169201 Ry
     estimated scf accuracy    <       0.06741463 Ry

     total magnetization       =    -1.56 Bohr mag/cell
     absolute magnetization    =     1.74 Bohr mag/cell

     iteration # 40     ecut=    36.75 Ry     beta= 0.05
     Davidson diagonalization with overlap
     ethr =  1.40E-05,  avg # of iterations =  1.3

     negative rho (up, down):  1.116E-02 1.102E-02
 
     Adding external electric field

     Computed dipole along edir(3) : 
        Dipole                0.1651 Ry au,          0.4197 Debye
        Dipole field          0.0003 Ry au, 
 
        Potential amp.       -0.0289 Ry
        Total length         46.3494 bohr
 
 
     Adding external electric field

     Computed dipole along edir(3) : 
        Dipole                0.1651 Ry au,          0.4197 Debye
        Dipole field          0.0003 Ry au, 
 
        Potential amp.       -0.0289 Ry
        Total length         46.3494 bohr
 

     total cpu time spent up to now is     1183.5 secs

     total energy              =   -3247.82048137 Ry
     estimated scf accuracy    <       0.05897675 Ry

     total magnetization       =    -1.53 Bohr mag/cell
     absolute magnetization    =     1.71 Bohr mag/cell

     iteration # 41     ecut=    36.75 Ry     beta= 0.05
     Davidson diagonalization with overlap
     ethr =  1.40E-05,  avg # of iterations =  1.8

     negative rho (up, down):  1.113E-02 1.100E-02
 
     Adding external electric field

     Computed dipole along edir(3) : 
        Dipole                0.1992 Ry au,          0.5064 Debye
        Dipole field          0.0004 Ry au, 
 
        Potential amp.       -0.0349 Ry
        Total length         46.3494 bohr
 
 
     Adding external electric field

     Computed dipole along edir(3) : 
        Dipole                0.1992 Ry au,          0.5064 Debye
        Dipole field          0.0004 Ry au, 
 
        Potential amp.       -0.0349 Ry
        Total length         46.3494 bohr
 

     total cpu time spent up to now is     1202.4 secs

     total energy              =   -3247.81813281 Ry
     estimated scf accuracy    <       0.04090787 Ry

     total magnetization       =    -1.48 Bohr mag/cell
     absolute magnetization    =     1.67 Bohr mag/cell

     iteration # 42     ecut=    36.75 Ry     beta= 0.05
     Davidson diagonalization with overlap
     c_bands:  1 eigenvalues not converged
     c_bands:  1 eigenvalues not converged
     c_bands:  1 eigenvalues not converged
     c_bands:  1 eigenvalues not converged
     c_bands:  1 eigenvalues not converged
     ethr =  1.07E-05,  avg # of iterations = 13.8

     negative rho (up, down):  1.112E-02 1.096E-02
 
     Adding external electric field

     Computed dipole along edir(3) : 
        Dipole                0.1764 Ry au,          0.4484 Debye
        Dipole field          0.0003 Ry au, 
 
        Potential amp.       -0.0309 Ry
        Total length         46.3494 bohr
 
 
     Adding external electric field

     Computed dipole along edir(3) : 
        Dipole                0.1764 Ry au,          0.4484 Debye
        Dipole field          0.0003 Ry au, 
 
        Potential amp.       -0.0309 Ry
        Total length         46.3494 bohr
 

     total cpu time spent up to now is     1233.0 secs

     total energy              =   -3247.81877274 Ry
     estimated scf accuracy    <       0.09133600 Ry

     total magnetization       =    -1.50 Bohr mag/cell
     absolute magnetization    =     1.62 Bohr mag/cell

     iteration # 43     ecut=    36.75 Ry     beta= 0.05
     Davidson diagonalization with overlap
     c_bands:  1 eigenvalues not converged
     ethr =  1.07E-05,  avg # of iterations =  8.9

     negative rho (up, down):  1.108E-02 1.091E-02
 
     Adding external electric field

     Computed dipole along edir(3) : 
        Dipole                0.1841 Ry au,          0.4680 Debye
        Dipole field          0.0003 Ry au, 
 
        Potential amp.       -0.0322 Ry
        Total length         46.3494 bohr
 
 
     Adding external electric field

     Computed dipole along edir(3) : 
        Dipole                0.1841 Ry au,          0.4680 Debye
        Dipole field          0.0003 Ry au, 
 
        Potential amp.       -0.0322 Ry
        Total length         46.3494 bohr
 

     total cpu time spent up to now is     1260.9 secs

     total energy              =   -3247.82330133 Ry
     estimated scf accuracy    <       0.03998335 Ry

     total magnetization       =    -1.67 Bohr mag/cell
     absolute magnetization    =     1.83 Bohr mag/cell

     iteration # 44     ecut=    36.75 Ry     beta= 0.05
     Davidson diagonalization with overlap
     ethr =  1.05E-05,  avg # of iterations =  1.9

     negative rho (up, down):  1.104E-02 1.082E-02
 
     Adding external electric field

     Computed dipole along edir(3) : 
        Dipole                0.2241 Ry au,          0.5696 Debye
        Dipole field          0.0004 Ry au, 
 
        Potential amp.       -0.0392 Ry
        Total length         46.3494 bohr
 
 
     Adding external electric field

     Computed dipole along edir(3) : 
        Dipole                0.2241 Ry au,          0.5696 Debye
        Dipole field          0.0004 Ry au, 
 
        Potential amp.       -0.0392 Ry
        Total length         46.3494 bohr
 

     total cpu time spent up to now is     1279.7 secs

     total energy              =   -3247.82676026 Ry
     estimated scf accuracy    <       0.03145335 Ry

     total magnetization       =    -1.67 Bohr mag/cell
     absolute magnetization    =     1.88 Bohr mag/cell

     iteration # 45     ecut=    36.75 Ry     beta= 0.05
     Davidson diagonalization with overlap
     ethr =  8.26E-06,  avg # of iterations =  4.6

     negative rho (up, down):  1.100E-02 1.068E-02
 
     Adding external electric field

     Computed dipole along edir(3) : 
        Dipole                0.3012 Ry au,          0.7655 Debye
        Dipole field          0.0006 Ry au, 
 
        Potential amp.       -0.0527 Ry
        Total length         46.3494 bohr
 
 
     Adding external electric field

     Computed dipole along edir(3) : 
        Dipole                0.3012 Ry au,          0.7655 Debye
        Dipole field          0.0006 Ry au, 
 
        Potential amp.       -0.0527 Ry
        Total length         46.3494 bohr
 

     total cpu time spent up to now is     1300.0 secs

     total energy              =   -3247.83422846 Ry
     estimated scf accuracy    <       0.01114189 Ry

     total magnetization       =    -1.75 Bohr mag/cell
     absolute magnetization    =     1.96 Bohr mag/cell

     iteration # 46     ecut=    36.75 Ry     beta= 0.05
     Davidson diagonalization with overlap
     c_bands:  1 eigenvalues not converged
     c_bands:  1 eigenvalues not converged
     c_bands:  1 eigenvalues not converged
     c_bands:  2 eigenvalues not converged
     c_bands:  1 eigenvalues not converged
     c_bands:  1 eigenvalues not converged
     ethr =  2.92E-06,  avg # of iterations = 15.3

     negative rho (up, down):  1.100E-02 1.063E-02
 
     Adding external electric field

     Computed dipole along edir(3) : 
        Dipole                0.3023 Ry au,          0.7684 Debye
        Dipole field          0.0006 Ry au, 
 
        Potential amp.       -0.0529 Ry
        Total length         46.3494 bohr
 
 
     Adding external electric field

     Computed dipole along edir(3) : 
        Dipole                0.3023 Ry au,          0.7684 Debye
        Dipole field          0.0006 Ry au, 
 
        Potential amp.       -0.0529 Ry
        Total length         46.3494 bohr
 

     total cpu time spent up to now is     1339.0 secs

     total energy              =   -3247.83753201 Ry
     estimated scf accuracy    <       0.05455687 Ry

     total magnetization       =    -2.21 Bohr mag/cell
     absolute magnetization    =     2.31 Bohr mag/cell

     iteration # 47     ecut=    36.75 Ry     beta= 0.05
     Davidson diagonalization with overlap
     c_bands:  1 eigenvalues not converged
     ethr =  2.92E-06,  avg # of iterations = 10.3

     negative rho (up, down):  1.097E-02 1.053E-02
 
     Adding external electric field

     Computed dipole along edir(3) : 
        Dipole                0.3073 Ry au,          0.7811 Debye
        Dipole field          0.0006 Ry au, 
 
        Potential amp.       -0.0538 Ry
        Total length         46.3494 bohr
 
 
     Adding external electric field

     Computed dipole along edir(3) : 
        Dipole                0.3073 Ry au,          0.7811 Debye
        Dipole field          0.0006 Ry au, 
 
        Potential amp.       -0.0538 Ry
        Total length         46.3494 bohr
 

     total cpu time spent up to now is     1367.0 secs

     total energy              =   -3247.84043767 Ry
     estimated scf accuracy    <       0.00632672 Ry

     total magnetization       =    -2.13 Bohr mag/cell
     absolute magnetization    =     2.34 Bohr mag/cell

     iteration # 48     ecut=    36.75 Ry     beta= 0.05
     Davidson diagonalization with overlap
     ethr =  1.66E-06,  avg # of iterations =  7.6

     negative rho (up, down):  1.097E-02 1.049E-02
 
     Adding external electric field

     Computed dipole along edir(3) : 
        Dipole                0.3007 Ry au,          0.7642 Debye
        Dipole field          0.0006 Ry au, 
 
        Potential amp.       -0.0526 Ry
        Total length         46.3494 bohr
 
 
     Adding external electric field

     Computed dipole along edir(3) : 
        Dipole                0.3007 Ry au,          0.7642 Debye
        Dipole field          0.0006 Ry au, 
 
        Potential amp.       -0.0526 Ry
        Total length         46.3494 bohr
 

     total cpu time spent up to now is     1393.4 secs

     total energy              =   -3247.84259090 Ry
     estimated scf accuracy    <       0.04461751 Ry

     total magnetization       =    -2.53 Bohr mag/cell
     absolute magnetization    =     2.59 Bohr mag/cell

     iteration # 49     ecut=    36.75 Ry     beta= 0.05
     Davidson diagonalization with overlap
     ethr =  1.66E-06,  avg # of iterations =  3.6

     negative rho (up, down):  1.098E-02 1.047E-02
 
     Adding external electric field

     Computed dipole along edir(3) : 
        Dipole                0.3046 Ry au,          0.7742 Debye
        Dipole field          0.0006 Ry au, 
 
        Potential amp.       -0.0533 Ry
        Total length         46.3494 bohr
 
 
     Adding external electric field

     Computed dipole along edir(3) : 
        Dipole                0.3046 Ry au,          0.7742 Debye
        Dipole field          0.0006 Ry au, 
 
        Potential amp.       -0.0533 Ry
        Total length         46.3494 bohr
 

     total cpu time spent up to now is     1419.8 secs

     total energy              =   -3247.84348591 Ry
     estimated scf accuracy    <       0.01687947 Ry

     total magnetization       =    -2.50 Bohr mag/cell
     absolute magnetization    =     2.58 Bohr mag/cell

     iteration # 50     ecut=    36.75 Ry     beta= 0.05
     Davidson diagonalization with overlap
     c_bands:  2 eigenvalues not converged
     c_bands:  1 eigenvalues not converged
     ethr =  1.66E-06,  avg # of iterations =  7.6

     negative rho (up, down):  1.099E-02 1.044E-02
 
     Adding external electric field

     Computed dipole along edir(3) : 
        Dipole                0.2997 Ry au,          0.7617 Debye
        Dipole field          0.0006 Ry au, 
 
        Potential amp.       -0.0524 Ry
        Total length         46.3494 bohr
 
 
     Adding external electric field

     Computed dipole along edir(3) : 
        Dipole                0.2997 Ry au,          0.7617 Debye
        Dipole field          0.0006 Ry au, 
 
        Potential amp.       -0.0524 Ry
        Total length         46.3494 bohr
 

     total cpu time spent up to now is     1453.6 secs

     total energy              =   -3247.84459876 Ry
     estimated scf accuracy    <       0.01007725 Ry

     total magnetization       =    -2.43 Bohr mag/cell
     absolute magnetization    =     2.54 Bohr mag/cell

     iteration # 51     ecut=    36.75 Ry     beta= 0.05
     Davidson diagonalization with overlap
     c_bands:  1 eigenvalues not converged
     ethr =  1.66E-06,  avg # of iterations =  7.2

     negative rho (up, down):  1.099E-02 1.039E-02
 
     Adding external electric field

     Computed dipole along edir(3) : 
        Dipole                0.3120 Ry au,          0.7931 Debye
        Dipole field          0.0006 Ry au, 
 
        Potential amp.       -0.0546 Ry
        Total length         46.3494 bohr
 
 
     Adding external electric field

     Computed dipole along edir(3) : 
        Dipole                0.3120 Ry au,          0.7931 Debye
        Dipole field          0.0006 Ry au, 
 
        Potential amp.       -0.0546 Ry
        Total length         46.3494 bohr
 

     total cpu time spent up to now is     1480.3 secs

     total energy              =   -3247.84553615 Ry
     estimated scf accuracy    <       0.00444456 Ry

     total magnetization       =    -2.38 Bohr mag/cell
     absolute magnetization    =     2.51 Bohr mag/cell

     iteration # 52     ecut=    36.75 Ry     beta= 0.05
     Davidson diagonalization with overlap
     c_bands:  1 eigenvalues not converged
     ethr =  1.17E-06,  avg # of iterations =  5.8

     negative rho (up, down):  1.101E-02 1.034E-02
 
     Adding external electric field

     Computed dipole along edir(3) : 
        Dipole                0.3092 Ry au,          0.7859 Debye
        Dipole field          0.0006 Ry au, 
 
        Potential amp.       -0.0541 Ry
        Total length         46.3494 bohr
 
 
     Adding external electric field

     Computed dipole along edir(3) : 
        Dipole                0.3092 Ry au,          0.7859 Debye
        Dipole field          0.0006 Ry au, 
 
        Potential amp.       -0.0541 Ry
        Total length         46.3494 bohr
 

     total cpu time spent up to now is     1505.5 secs

     total energy              =   -3247.84676395 Ry
     estimated scf accuracy    <       0.02070182 Ry

     total magnetization       =    -2.54 Bohr mag/cell
     absolute magnetization    =     2.64 Bohr mag/cell

     iteration # 53     ecut=    36.75 Ry     beta= 0.05
     Davidson diagonalization with overlap
     c_bands:  1 eigenvalues not converged
     ethr =  1.17E-06,  avg # of iterations =  7.2

     negative rho (up, down):  1.108E-02 1.027E-02
 
     Adding external electric field

     Computed dipole along edir(3) : 
        Dipole                0.2996 Ry au,          0.7616 Debye
        Dipole field          0.0006 Ry au, 
 
        Potential amp.       -0.0524 Ry
        Total length         46.3494 bohr
 
 
     Adding external electric field

     Computed dipole along edir(3) : 
        Dipole                0.2996 Ry au,          0.7616 Debye
        Dipole field          0.0006 Ry au, 
 
        Potential amp.       -0.0524 Ry
        Total length         46.3494 bohr
 

     total cpu time spent up to now is     1529.7 secs

     total energy              =   -3247.84778895 Ry
     estimated scf accuracy    <       0.01641858 Ry

     total magnetization       =    -2.57 Bohr mag/cell
     absolute magnetization    =     2.66 Bohr mag/cell

     iteration # 54     ecut=    36.75 Ry     beta= 0.05
     Davidson diagonalization with overlap
     c_bands:  2 eigenvalues not converged
     c_bands:  1 eigenvalues not converged
     c_bands:  3 eigenvalues not converged
     c_bands:  1 eigenvalues not converged
     ethr =  1.17E-06,  avg # of iterations = 10.9

     negative rho (up, down):  1.107E-02 1.027E-02
 
     Adding external electric field

     Computed dipole along edir(3) : 
        Dipole                0.2973 Ry au,          0.7557 Debye
        Dipole field          0.0006 Ry au, 
 
        Potential amp.       -0.0520 Ry
        Total length         46.3494 bohr
 
 
     Adding external electric field

     Computed dipole along edir(3) : 
        Dipole                0.2973 Ry au,          0.7557 Debye
        Dipole field          0.0006 Ry au, 
 
        Potential amp.       -0.0520 Ry
        Total length         46.3494 bohr
 

     total cpu time spent up to now is     1564.4 secs

     total energy              =   -3247.84799335 Ry
     estimated scf accuracy    <       0.00141596 Ry

     total magnetization       =    -2.48 Bohr mag/cell
     absolute magnetization    =     2.60 Bohr mag/cell

     iteration # 55     ecut=    36.75 Ry     beta= 0.05
     Davidson diagonalization with overlap
     c_bands:  1 eigenvalues not converged
     ethr =  3.72E-07,  avg # of iterations =  4.6

     negative rho (up, down):  1.108E-02 1.025E-02
 
     Adding external electric field

     Computed dipole along edir(3) : 
        Dipole                0.3032 Ry au,          0.7707 Debye
        Dipole field          0.0006 Ry au, 
 
        Potential amp.       -0.0530 Ry
        Total length         46.3494 bohr
 
 
     Adding external electric field

     Computed dipole along edir(3) : 
        Dipole                0.3032 Ry au,          0.7707 Debye
        Dipole field          0.0006 Ry au, 
 
        Potential amp.       -0.0530 Ry
        Total length         46.3494 bohr
 

     total cpu time spent up to now is     1587.7 secs

     total energy              =   -3247.84827993 Ry
     estimated scf accuracy    <       0.00121292 Ry

     total magnetization       =    -2.47 Bohr mag/cell
     absolute magnetization    =     2.60 Bohr mag/cell

     iteration # 56     ecut=    36.75 Ry     beta= 0.05
     Davidson diagonalization with overlap
     ethr =  3.18E-07,  avg # of iterations =  3.2

     negative rho (up, down):  1.110E-02 1.023E-02
 
     Adding external electric field

     Computed dipole along edir(3) : 
        Dipole                0.2947 Ry au,          0.7489 Debye
        Dipole field          0.0006 Ry au, 
 
        Potential amp.       -0.0515 Ry
        Total length         46.3494 bohr
 
 
     Adding external electric field

     Computed dipole along edir(3) : 
        Dipole                0.2947 Ry au,          0.7489 Debye
        Dipole field          0.0006 Ry au, 
 
        Potential amp.       -0.0515 Ry
        Total length         46.3494 bohr
 

     total cpu time spent up to now is     1617.7 secs

     total energy              =   -3247.84842747 Ry
     estimated scf accuracy    <       0.00159863 Ry

     total magnetization       =    -2.49 Bohr mag/cell
     absolute magnetization    =     2.62 Bohr mag/cell

     iteration # 57     ecut=    36.75 Ry     beta= 0.05
     Davidson diagonalization with overlap
     ethr =  3.18E-07,  avg # of iterations =  4.8

     negative rho (up, down):  1.110E-02 1.022E-02
 
     Adding external electric field

     Computed dipole along edir(3) : 
        Dipole                0.2953 Ry au,          0.7507 Debye
        Dipole field          0.0006 Ry au, 
 
        Potential amp.       -0.0517 Ry
        Total length         46.3494 bohr
 
 
     Adding external electric field

     Computed dipole along edir(3) : 
        Dipole                0.2953 Ry au,          0.7507 Debye
        Dipole field          0.0006 Ry au, 
 
        Potential amp.       -0.0517 Ry
        Total length         46.3494 bohr
 

     total cpu time spent up to now is     1639.2 secs

     total energy              =   -3247.84849186 Ry
     estimated scf accuracy    <       0.00092106 Ry

     total magnetization       =    -2.48 Bohr mag/cell
     absolute magnetization    =     2.62 Bohr mag/cell

     iteration # 58     ecut=    36.75 Ry     beta= 0.05
     Davidson diagonalization with overlap
     ethr =  2.42E-07,  avg # of iterations =  4.4

     negative rho (up, down):  1.110E-02 1.021E-02
 
     Adding external electric field

     Computed dipole along edir(3) : 
        Dipole                0.2938 Ry au,          0.7469 Debye
        Dipole field          0.0006 Ry au, 
 
        Potential amp.       -0.0514 Ry
        Total length         46.3494 bohr
 
 
     Adding external electric field

     Computed dipole along edir(3) : 
        Dipole                0.2938 Ry au,          0.7469 Debye
        Dipole field          0.0006 Ry au, 
 
        Potential amp.       -0.0514 Ry
        Total length         46.3494 bohr
 

     total cpu time spent up to now is     1659.3 secs

     total energy              =   -3247.84858868 Ry
     estimated scf accuracy    <       0.00198204 Ry

     total magnetization       =    -2.50 Bohr mag/cell
     absolute magnetization    =     2.65 Bohr mag/cell

     iteration # 59     ecut=    36.75 Ry     beta= 0.05
     Davidson diagonalization with overlap
     ethr =  2.42E-07,  avg # of iterations =  2.5

     negative rho (up, down):  1.111E-02 1.019E-02
 
     Adding external electric field

     Computed dipole along edir(3) : 
        Dipole                0.2907 Ry au,          0.7389 Debye
        Dipole field          0.0005 Ry au, 
 
        Potential amp.       -0.0509 Ry
        Total length         46.3494 bohr
 
 
     Adding external electric field

     Computed dipole along edir(3) : 
        Dipole                0.2907 Ry au,          0.7389 Debye
        Dipole field          0.0005 Ry au, 
 
        Potential amp.       -0.0509 Ry
        Total length         46.3494 bohr
 

     total cpu time spent up to now is     1681.3 secs

     total energy              =   -3247.84871293 Ry
     estimated scf accuracy    <       0.00187688 Ry

     total magnetization       =    -2.51 Bohr mag/cell
     absolute magnetization    =     2.65 Bohr mag/cell

     iteration # 60     ecut=    36.75 Ry     beta= 0.05
     Davidson diagonalization with overlap
     c_bands:  1 eigenvalues not converged
     ethr =  2.42E-07,  avg # of iterations =  3.8

     negative rho (up, down):  1.115E-02 1.016E-02
 
     Adding external electric field

     Computed dipole along edir(3) : 
        Dipole                0.2824 Ry au,          0.7178 Debye
        Dipole field          0.0005 Ry au, 
 
        Potential amp.       -0.0494 Ry
        Total length         46.3494 bohr
 
 
     Adding external electric field

     Computed dipole along edir(3) : 
        Dipole                0.2824 Ry au,          0.7178 Debye
        Dipole field          0.0005 Ry au, 
 
        Potential amp.       -0.0494 Ry
        Total length         46.3494 bohr
 

     total cpu time spent up to now is     1700.5 secs

     total energy              =   -3247.84876881 Ry
     estimated scf accuracy    <       0.00141551 Ry

     total magnetization       =    -2.52 Bohr mag/cell
     absolute magnetization    =     2.66 Bohr mag/cell

     iteration # 61     ecut=    36.75 Ry     beta= 0.05
     Davidson diagonalization with overlap
     c_bands:  2 eigenvalues not converged
     c_bands:  1 eigenvalues not converged
     c_bands:  1 eigenvalues not converged
     c_bands:  1 eigenvalues not converged
     ethr =  2.42E-07,  avg # of iterations = 10.6

     negative rho (up, down):  1.114E-02 1.016E-02
 
     Adding external electric field

     Computed dipole along edir(3) : 
        Dipole                0.2878 Ry au,          0.7314 Debye
        Dipole field          0.0005 Ry au, 
 
        Potential amp.       -0.0503 Ry
        Total length         46.3494 bohr
 
 
     Adding external electric field

     Computed dipole along edir(3) : 
        Dipole                0.2878 Ry au,          0.7314 Debye
        Dipole field          0.0005 Ry au, 
 
        Potential amp.       -0.0503 Ry
        Total length         46.3494 bohr
 

     total cpu time spent up to now is     1729.1 secs

     total energy              =   -3247.84880798 Ry
     estimated scf accuracy    <       0.00123747 Ry

[...]
    -4.1749  -4.1122  -4.0187  -3.9473  -3.8619  -3.8097  -3.7603  -3.6186
    -3.6158  -3.5223  -3.4929  -3.4462  -3.3425  -3.3179  -3.2360  -3.1841
    -3.1732  -3.1093  -3.0497  -2.9836  -2.9705  -2.9614  -2.8907  -2.8403
    -2.7775  -2.7727  -2.7706  -2.6472  -2.5591  -2.5170  -2.4965  -2.4662
    -2.4239  -2.3446  -2.3254  -2.2886  -2.2248  -2.1902  -2.1463  -2.1198
    -2.0663  -2.0274  -1.9120  -1.8546  -1.8235  -1.8208  -1.7413  -1.6848
    -1.6220  -1.6129  -1.5750  -1.5226  -1.4121  -1.3592  -1.2680  -1.1546
    -1.1429  -1.1339  -1.0906  -1.0689  -1.0279  -0.9548  -0.8408  -0.7936
    -0.7568  -0.7500  -0.6866  -0.6687  -0.6242  -0.5984  -0.5319  -0.5194
    -0.4975  -0.4447  -0.4400  -0.4131  -0.3558  -0.2621  -0.1635  -0.0867
    -0.0601  -0.0493   0.0282   0.0430   0.0913   0.2660   0.3337   0.4429
     0.5170   0.6673   0.6703   0.9940   1.0860   1.9871   2.1244   2.6663
     2.7670   2.8300   3.0510   3.0688   3.1105   3.1171   3.1589   3.2017

          k = 0.0380 0.0419 0.0000 ( 25075 PWs)   bands (ev):

   -56.5891 -56.5529 -56.4595 -56.4342 -56.2855 -56.2221 -56.2025 -56.1981
   -56.1584 -56.1284 -56.1273 -56.1036 -55.6510 -55.6174 -55.5051 -55.4810
   -32.9132 -32.8942 -32.8407 -32.7982 -32.6970 -32.6914 -32.6462 -32.6232
   -32.6229 -32.6047 -32.5973 -32.5923 -32.5891 -32.5789 -32.5623 -32.5259
   -32.5130 -32.4457 -32.4378 -32.4219 -32.4056 -32.4013 -32.3740 -32.3501
   -32.3311 -32.3282 -32.3207 -32.3065 -32.3050 -32.2951 -32.2855 -32.2778
   -32.2631 -32.2528 -32.2438 -32.2321 -32.0629 -31.8528 -31.8518 -31.8279
   -31.8105 -31.7824 -31.7741 -31.7544 -31.7337 -31.6712 -31.6100 -31.5421
   -16.9379 -16.7181 -16.4940 -16.4215 -16.3813 -16.3715 -16.2843 -16.2309
   -16.2131 -16.0528 -16.0409 -16.0027 -15.9979 -15.9575 -15.9456 -15.9160
   -15.9018 -15.8466 -15.8190 -15.7900 -15.7775 -15.6695 -15.6639 -15.6511
   -15.6172 -15.5918 -15.5030 -15.4591 -15.2211 -14.0896 -14.0105  -4.1903
    -4.0858  -3.9338  -3.8503  -3.7920  -3.6518  -3.6391  -3.6004  -3.5526
    -3.4593  -3.4505  -3.3586  -3.3478  -3.3105  -3.2657  -3.2466  -3.1820
    -3.1786  -3.1362  -3.1291  -3.0744  -3.0635  -3.0178  -2.9828  -2.9403
    -2.9167  -2.8738  -2.8452  -2.7981  -2.7066  -2.6873  -2.6471  -2.5751
    -2.5528  -2.4467  -2.3336  -2.2853  -2.2435  -2.1823  -2.1488  -2.0815
    -1.8897  -1.8424  -1.8093  -1.7620  -1.7361  -1.6805  -1.5972  -1.5623
    -1.5551  -1.5012  -1.4650  -1.4448  -1.3990  -1.3263  -1.2898  -1.2617
    -1.1870  -1.1852  -1.1776  -1.1425  -1.0710  -1.0430  -1.0107  -0.9906
    -0.9248  -0.9124  -0.8305  -0.7949  -0.7629  -0.7197  -0.6727  -0.6449
    -0.5425  -0.5015  -0.4576  -0.4184  -0.3547  -0.2353  -0.2046  -0.1490
    -0.0859  -0.0288  -0.0097   0.0550   0.0892   0.1083   0.1306   0.3356
     0.6125   0.7230   0.7910   0.9742   1.0641   2.0071   2.1819   2.6941
     2.8504   3.0389   3.0626   3.0932   3.1269   3.1726   3.1999   3.2293

          k = 0.0380-0.0839 0.0000 ( 25070 PWs)   bands (ev):

   -56.5846 -56.5574 -56.4473 -56.4465 -56.2846 -56.2113 -56.2089 -56.1990
   -56.1619 -56.1283 -56.1187 -56.1133 -55.6460 -55.6224 -55.4931 -55.4930
   -32.8381 -32.8004 -32.7923 -32.7702 -32.7573 -32.7529 -32.6685 -32.6571
   -32.6529 -32.6463 -32.5693 -32.5681 -32.5641 -32.5089 -32.4640 -32.4623
   -32.4548 -32.4396 -32.4335 -32.4222 -32.4132 -32.4089 -32.4021 -32.3744
   -32.3738 -32.3678 -32.3605 -32.3594 -32.3257 -32.3250 -32.3203 -32.2842
   -32.2757 -32.2619 -32.2580 -32.2548 -32.0033 -31.8481 -31.8418 -31.8323
   -31.8002 -31.7896 -31.7642 -31.7641 -31.6782 -31.6782 -31.6406 -31.6406
   -16.6287 -16.6072 -16.4655 -16.4437 -16.3157 -16.3054 -16.1815 -16.1734
   -16.1430 -16.1320 -16.0939 -16.0800 -16.0449 -16.0417 -15.9240 -15.9228
   -15.8367 -15.8339 -15.8259 -15.7790 -15.7714 -15.7503 -15.7089 -15.6998
   -15.6783 -15.6686 -15.5551 -15.5491 -15.3145 -14.0740 -14.0715  -3.9960
    -3.7972  -3.7623  -3.5674  -3.5654  -3.5301  -3.5261  -3.4631  -3.4582
    -3.3865  -3.3778  -3.3304  -3.3162  -3.2988  -3.2751  -3.2383  -3.2343
    -3.2186  -3.1831  -3.1790  -3.1628  -3.0740  -3.0499  -3.0152  -2.9958
    -2.9913  -2.9056  -2.8956  -2.8573  -2.8491  -2.7965  -2.4347  -2.4272
    -2.4121  -2.4032  -2.2797  -2.2695  -2.2417  -2.2400  -2.1260  -2.1202
    -2.0415  -2.0235  -2.0000  -1.9837  -1.8987  -1.8621  -1.8508  -1.6548
    -1.5509  -1.5026  -1.4275  -1.4148  -1.3116  -1.2872  -1.2240  -1.2191
    -1.1431  -1.1250  -1.1192  -1.1110  -1.0501  -1.0406  -1.0359  -1.0309
    -0.9795  -0.9375  -0.9211  -0.8856  -0.8819  -0.8335  -0.7415  -0.7349
    -0.6497  -0.6312  -0.4877  -0.4423  -0.3704  -0.3306  -0.2214  -0.2149
    -0.1527  -0.1228  -0.1000  -0.0328   0.0096   0.2154   0.2923   0.3859
     0.4045   0.8577   0.8590   0.9919   0.9939   2.0336   2.2904   2.6668
     2.9981   3.0286   3.0441   3.0990   3.1246   3.1387   3.2528   3.2557

          k = 0.0380-0.0419 0.0000 ( 25077 PWs)   bands (ev):

   -56.5891 -56.5529 -56.4595 -56.4342 -56.2855 -56.2221 -56.2025 -56.1981
   -56.1584 -56.1284 -56.1273 -56.1036 -55.6510 -55.6174 -55.5051 -55.4810
   -32.9132 -32.8942 -32.8407 -32.7982 -32.6970 -32.6914 -32.6462 -32.6232
   -32.6229 -32.6047 -32.5973 -32.5923 -32.5891 -32.5789 -32.5623 -32.5259
   -32.5130 -32.4457 -32.4378 -32.4219 -32.4056 -32.4013 -32.3740 -32.3501
   -32.3311 -32.3282 -32.3207 -32.3065 -32.3050 -32.2951 -32.2855 -32.2778
   -32.2631 -32.2528 -32.2438 -32.2321 -32.0629 -31.8528 -31.8518 -31.8279
   -31.8105 -31.7824 -31.7741 -31.7544 -31.7337 -31.6712 -31.6100 -31.5421
   -16.9379 -16.7179 -16.4939 -16.4214 -16.3813 -16.3715 -16.2845 -16.2314
   -16.2131 -16.0528 -16.0409 -16.0027 -15.9980 -15.9575 -15.9453 -15.9160
   -15.9017 -15.8466 -15.8193 -15.7901 -15.7774 -15.6694 -15.6634 -15.6511
   -15.6172 -15.5921 -15.5031 -15.4591 -15.2211 -14.0896 -14.0105  -4.1903
    -4.0859  -3.9331  -3.8503  -3.7916  -3.6517  -3.6391  -3.6003  -3.5526
    -3.4596  -3.4509  -3.3586  -3.3477  -3.3108  -3.2658  -3.2464  -3.1823
    -3.1789  -3.1365  -3.1292  -3.0744  -3.0634  -3.0177  -2.9825  -2.9403
    -2.9172  -2.8739  -2.8455  -2.7976  -2.7066  -2.6874  -2.6470  -2.5750
    -2.5530  -2.4456  -2.3334  -2.2851  -2.2430  -2.1822  -2.1488  -2.0815
    -1.8898  -1.8424  -1.8094  -1.7614  -1.7359  -1.6810  -1.5976  -1.5619
    -1.5553  -1.5014  -1.4653  -1.4450  -1.3998  -1.3267  -1.2898  -1.2614
    -1.1874  -1.1861  -1.1779  -1.1429  -1.0713  -1.0433  -1.0110  -0.9911
    -0.9249  -0.9125  -0.8306  -0.7951  -0.7627  -0.7197  -0.6727  -0.6449
    -0.5424  -0.5011  -0.4577  -0.4183  -0.3545  -0.2353  -0.2045  -0.1492
    -0.0855  -0.0286  -0.0096   0.0552   0.0896   0.1085   0.1299   0.3359
     0.6128   0.7230   0.7910   0.9740   1.0647   2.0071   2.1818   2.6943
     2.8506   3.0391   3.0626   3.0932   3.1270   3.1721   3.2001   3.2289

          k =-0.0760-0.0000 0.0000 ( 25092 PWs)   bands (ev):

   -56.5926 -56.5493 -56.4647 -56.4289 -56.2864 -56.2270 -56.2055 -56.1931
   -56.1554 -56.1334 -56.1264 -56.0986 -55.6548 -55.6136 -55.5101 -55.4760
   -32.9677 -32.9517 -32.8430 -32.7964 -32.7095 -32.7016 -32.6509 -32.6507
   -32.6450 -32.6104 -32.5980 -32.5896 -32.5735 -32.5725 -32.5667 -32.5379
   -32.5188 -32.4490 -32.4396 -32.4259 -32.4021 -32.3977 -32.3942 -32.3568
   -32.3148 -32.3124 -32.3044 -32.2966 -32.2865 -32.2715 -32.2693 -32.2533
   -32.2497 -32.2312 -32.2292 -32.1793 -32.1039 -31.8640 -31.8601 -31.8593
   -31.8232 -31.7815 -31.7747 -31.7488 -31.6878 -31.6836 -31.5972 -31.4848
   -16.9838 -16.6687 -16.5557 -16.5040 -16.4189 -16.4053 -16.3387 -16.2685
   -16.1823 -16.1382 -16.1023 -16.0967 -16.0699 -16.0655 -15.9576 -15.9434
   -15.9258 -15.8292 -15.7365 -15.7177 -15.7076 -15.6541 -15.6240 -15.6112
   -15.5443 -15.4952 -15.4566 -15.4009 -15.1454 -14.0819 -13.9703  -4.3504
    -3.9615  -3.8854  -3.8455  -3.8043  -3.7601  -3.7337  -3.7068  -3.6202
    -3.6059  -3.5371  -3.5162  -3.4656  -3.4386  -3.2837  -3.1691  -3.1637
    -3.1093  -2.9932  -2.9816  -2.9585  -2.9431  -2.8736  -2.8575  -2.7569
    -2.7302  -2.6843  -2.6790  -2.5929  -2.5604  -2.5123  -2.5043  -2.4902
    -2.4751  -2.4381  -2.4270  -2.4189  -2.1391  -2.0993  -2.0932  -2.0727
    -2.0572  -2.0313  -2.0060  -1.9316  -1.9088  -1.9076  -1.8158  -1.6804
    -1.6767  -1.6438  -1.5889  -1.5408  -1.5321  -1.4538  -1.4494  -1.2510
    -1.1375  -1.0932  -1.0890  -1.0815  -1.0692  -1.0610  -0.9743  -0.9258
    -0.9090  -0.7962  -0.7819  -0.7439  -0.6731  -0.6517  -0.6291  -0.5862
    -0.5492  -0.5470  -0.4866  -0.3767  -0.2587  -0.2144  -0.2046  -0.1137
    -0.1037  -0.0981  -0.0012   0.0915   0.2024   0.2380   0.2444   0.3962
     0.4961   0.5409   0.6415   0.8481   1.0092   1.9989   2.1195   2.5986
     2.7606   2.8309   2.9236   2.9407   3.0275   3.1152   3.1727   3.2399

          k =-0.0760 0.0419 0.0000 ( 25078 PWs)   bands (ev):

   -56.5891 -56.5529 -56.4595 -56.4342 -56.2855 -56.2221 -56.2025 -56.1981
   -56.1584 -56.1284 -56.1273 -56.1036 -55.6510 -55.6174 -55.5051 -55.4810
   -32.9141 -32.8944 -32.8407 -32.7982 -32.6970 -32.6893 -32.6464 -32.6231
   -32.6229 -32.6100 -32.6047 -32.5951 -32.5905 -32.5706 -32.5624 -32.5139
   -32.5114 -32.4437 -32.4379 -32.4219 -32.4013 -32.3897 -32.3829 -32.3500
   -32.3336 -32.3260 -32.3204 -32.3080 -32.3047 -32.2951 -32.2859 -32.2767
   -32.2739 -32.2538 -32.2439 -32.2322 -32.0624 -31.8554 -31.8518 -31.8273
   -31.8103 -31.7824 -31.7765 -31.7535 -31.7336 -31.6712 -31.6100 -31.5421
   -16.8640 -16.5498 -16.4776 -16.3933 -16.3794 -16.3149 -16.3079 -16.2591
   -16.1810 -16.1340 -16.0838 -16.0413 -16.0350 -16.0008 -15.9716 -15.9564
   -15.9271 -15.8668 -15.8265 -15.7631 -15.7624 -15.7592 -15.6612 -15.6420
   -15.6150 -15.5954 -15.5050 -15.4560 -15.2192 -14.0875 -14.0108  -4.1773
    -3.9518  -3.6993  -3.6401  -3.6161  -3.5300  -3.4610  -3.4531  -3.4467
    -3.4170  -3.4089  -3.4071  -3.3476  -3.3059  -3.2477  -3.2165  -3.2154
    -3.1542  -3.1300  -3.0748  -3.0578  -3.0178  -2.9767  -2.9657  -2.9580
    -2.8537  -2.8414  -2.7753  -2.7172  -2.6859  -2.5712  -2.5282  -2.4516
    -2.4345  -2.4113  -2.3982  -2.3645  -2.2635  -2.2624  -2.0689  -2.0544
    -1.9354  -1.9240  -1.8603  -1.8394  -1.7416  -1.7163  -1.7046  -1.6911
    -1.6494  -1.5932  -1.5844  -1.5839  -1.5080  -1.4884  -1.4880  -1.4372
    -1.3850  -1.3115  -1.3034  -1.2618  -1.1544  -1.1386  -1.1042  -1.0730
    -1.0629  -1.0270  -1.0228  -0.9415  -0.8289  -0.7948  -0.7253  -0.7180
    -0.6070  -0.5115  -0.4946  -0.3896  -0.2397  -0.1905  -0.1211  -0.0996
    -0.0491   0.0355   0.0531   0.0830   0.1312   0.1718   0.2179   0.2722
     0.4532   0.7396   0.7963   0.9026   1.0420   2.0092   2.2001   2.7009
     2.8267   2.8807   2.9732   3.0649   3.0907   3.1157   3.1870   3.2830

          k =-0.0760-0.0839 0.0000 ( 25128 PWs)   bands (ev):

   -56.5846 -56.5574 -56.4473 -56.4465 -56.2846 -56.2113 -56.2089 -56.1990
   -56.1619 -56.1283 -56.1187 -56.1134 -55.6460 -55.6224 -55.4931 -55.4930
   -32.8381 -32.8004 -32.7929 -32.7708 -32.7574 -32.7530 -32.6674 -32.6571
   -32.6529 -32.6451 -32.5711 -32.5674 -32.5642 -32.5098 -32.4671 -32.4655
   -32.4482 -32.4380 -32.4335 -32.4170 -32.4131 -32.4088 -32.4038 -32.3748
   -32.3733 -32.3661 -32.3549 -32.3515 -32.3249 -32.3249 -32.3245 -32.2824
   -32.2756 -32.2663 -32.2622 -32.2618 -32.0032 -31.8488 -31.8418 -31.8333
   -31.8000 -31.7896 -31.7649 -31.7648 -31.6781 -31.6781 -31.6407 -31.6406
   -16.5842 -16.5580 -16.3644 -16.3477 -16.2864 -16.2434 -16.2256 -16.2213
   -16.1448 -16.1226 -16.0296 -16.0128 -16.0109 -16.0070 -15.9793 -15.9724
   -15.9246 -15.9085 -15.8838 -15.8782 -15.8090 -15.8062 -15.7894 -15.6976
   -15.6794 -15.6567 -15.5492 -15.5448 -15.3104 -14.0738 -14.0713  -3.9686
    -3.8018  -3.7636  -3.5030  -3.4961  -3.3640  -3.3474  -3.2807  -3.2798
    -3.1924  -3.1914  -3.1369  -3.1254  -3.1251  -3.1137  -3.0850  -3.0781
    -3.0585  -3.0414  -3.0140  -3.0062  -3.0040  -2.9709  -2.9345  -2.9327
    -2.9297  -2.9260  -2.8542  -2.8535  -2.7917  -2.5946  -2.5548  -2.5540
    -2.5192  -2.5171  -2.5112  -2.4736  -2.4284  -2.4045  -2.3527  -2.1981
    -2.1320  -2.1245  -2.0667  -1.9933  -1.8776  -1.8185  -1.7933  -1.6963
    -1.6650  -1.6487  -1.5806  -1.5176  -1.5146  -1.4834  -1.4425  -1.4319
    -1.4266  -1.4150  -1.3697  -1.2396  -1.2248  -1.2080  -1.1792  -1.1779
    -1.1430  -1.1069  -0.9983  -0.9855  -0.9769  -0.9257  -0.7973  -0.7882
    -0.7224  -0.7150  -0.4233  -0.4098  -0.2629  -0.1586  -0.0561  -0.0373
    -0.0261   0.0247   0.0794   0.0967   0.1533   0.1733   0.1778   0.3325
     0.3605   0.8798   0.8822   0.9695   0.9783   2.0374   2.3195   2.7058
     3.0152   3.0267   3.0730   3.1202   3.1228   3.1457   3.1679   3.1882

     the Fermi energy is     2.7211 ev

!    total energy              =   -3247.85668516 Ry
     estimated scf accuracy    <       0.00000004 Ry
     smearing contrib. (-TS)   =      -0.00020694 Ry
     internal energy E=F+TS    =   -3247.85647822 Ry

     The total energy is F=E-TS. E is the sum of the following terms:
     one-electron contribution =  -24961.48442704 Ry
     hartree contribution      =   12566.52001296 Ry
     xc contribution           =    -543.02345579 Ry
     ewald contribution        =   10002.04397095 Ry
     electric field correction =       0.00008487 Ry
     one-center paw contrib.   =    -311.91266417 Ry

     total magnetization       =    -2.88 Bohr mag/cell
     absolute magnetization    =     3.04 Bohr mag/cell

     convergence has been achieved in  13 iterations

     negative rho (up, down):  1.178E-02 1.031E-02

     Forces acting on atoms (cartesian axes, Ry/au):

     atom    1 type  1   force =     0.00007722    0.00004381    0.12047535
     atom    2 type  1   force =    -0.00008657    0.00024960   -0.17555721
     atom    3 type  2   force =     0.00005199   -0.00000419   -0.04848805
     atom    4 type  2   force =     0.00002476    0.00004331    0.04439979
     atom    5 type  2   force =    -0.02636646   -0.00049594    0.00209059
     atom    6 type  2   force =     0.02628598   -0.00000921    0.00208527
     atom    7 type  1   force =     0.00000115    0.00041518    0.00152668
     atom    8 type  1   force =    -0.00001018   -0.00996454    0.02481429
     atom    9 type  2   force =    -0.00000151    0.00003111   -0.00071871
     atom   10 type  2   force =     0.00002794   -0.00015579   -0.01454243
     atom   11 type  2   force =    -0.00038281   -0.00001304    0.00002963
     atom   12 type  2   force =     0.00037193   -0.00001279    0.00002742
     atom   13 type  1   force =     0.00000897    0.00010748    0.00092189
     atom   14 type  1   force =     0.00000493    0.00071055   -0.00063495
     atom   15 type  2   force =    -0.00000169    0.00023534    0.00044985
     atom   16 type  2   force =    -0.00000051   -0.00012366   -0.00060419
     atom   17 type  2   force =    -0.00036644   -0.00006827   -0.00054610
     atom   18 type  2   force =     0.00036538   -0.00006975   -0.00054753
     atom   19 type  1   force =    -0.00000063   -0.00057422    0.00015410
     atom   20 type  1   force =    -0.00000038   -0.00018391    0.00020221
     atom   21 type  2   force =     0.00006248    0.00008131    0.10187929
     atom   22 type  2   force =    -0.00000147    0.00012134    0.00035897
     atom   23 type  2   force =    -0.06817183    0.00097072   -0.03174828
     atom   24 type  2   force =     0.06809228    0.00140986   -0.03178950
     atom   25 type  1   force =     0.00007757   -0.00002278    0.13016398
     atom   26 type  1   force =    -0.00008577   -0.00033097   -0.17552586
     atom   27 type  2   force =     0.00005216   -0.00008956   -0.04636756
     atom   28 type  2   force =     0.00002358   -0.00001527    0.04423939
     atom   29 type  2   force =    -0.02626282   -0.00019880    0.00213946
     atom   30 type  2   force =     0.02618865    0.00028609    0.00213139
     atom   31 type  1   force =     0.00000320   -0.00043555    0.00128413
     atom   32 type  1   force =    -0.00001066    0.00969445    0.02477058
     atom   33 type  2   force =    -0.00000142   -0.00008000   -0.00038124
     atom   34 type  2   force =     0.00002374    0.00029069   -0.01399477
     atom   35 type  2   force =    -0.00042006    0.00017199    0.00010764
     atom   36 type  2   force =     0.00040958    0.00017319    0.00010506
     atom   37 type  1   force =     0.00001100   -0.00005383   -0.00108498
     atom   38 type  1   force =     0.00000454   -0.00079422   -0.00069190
     atom   39 type  2   force =    -0.00000372    0.00018131   -0.00062937
     atom   40 type  2   force =    -0.00000178    0.00006823    0.00008664
     atom   41 type  2   force =    -0.00051335    0.00005690   -0.00047518
     atom   42 type  2   force =     0.00051405    0.00005777   -0.00047705
     atom   43 type  1   force =     0.00000546    0.00065220    0.00072011
     atom   44 type  1   force =    -0.00000161   -0.00035935    0.00019436
     atom   45 type  2   force =     0.00006283    0.00008400    0.10191859
     atom   46 type  3   force =     0.00001474    0.00023294    0.00107069
     atom   47 type  2   force =    -0.06817610   -0.00137665   -0.03175128
     atom   48 type  2   force =     0.06810170   -0.00093711   -0.03179119

     Total force =     0.386680     Total SCF correction =     0.000678
  @ DRIVER MODE: Message from server: STATUS
  @ DRIVER MODE: Message from server: GETFORCE
  @ DRIVER MODE: Returning v,forces,stress,ensemble 

     Writing output data file ./calc.save/
  @ DRIVER MODE: Message from server: EXIT
  @ DRIVE MODE: Exiting  
 
     init_run     :     14.55s CPU     15.13s WALL (       1 calls)
     electrons    :  18483.95s CPU  18986.79s WALL (      16 calls)
     update_pot   :     30.83s CPU     31.32s WALL (      15 calls)
     forces       :     87.54s CPU     93.27s WALL (      16 calls)

     Called by init_run:
     wfcinit      :      8.45s CPU      8.89s WALL (       1 calls)
     potinit      :      4.66s CPU      4.73s WALL (       1 calls)
     hinit0       :      0.63s CPU      0.64s WALL (       1 calls)

     Called by electrons:
     c_bands      :  15364.18s CPU  15689.50s WALL (     560 calls)
     sum_band     :   2133.55s CPU   2231.76s WALL (     560 calls)
     v_of_rho     :    485.76s CPU    507.90s WALL (     576 calls)
     newd         :    164.82s CPU    196.12s WALL (     576 calls)
     PAW_pot      :    234.63s CPU    241.84s WALL (     591 calls)
     mix_rho      :    103.09s CPU    116.53s WALL (     560 calls)
     vdW_kernel   :      3.03s CPU      3.04s WALL (       1 calls)

     Called by c_bands:
     init_us_2    :    107.57s CPU    108.52s WALL (   23040 calls)
     cegterg      :  15058.49s CPU  15372.21s WALL (   11312 calls)

     Called by *egterg:
     cdiaghg      :   2961.33s CPU   3074.05s WALL (   78189 calls)
     h_psi        :   7368.02s CPU   7525.80s WALL (   78620 calls)
     s_psi        :    836.66s CPU    840.15s WALL (   78620 calls)
     g_psi        :     24.13s CPU     24.31s WALL (   67288 calls)

     Called by h_psi:
     h_psi:calbec :    876.52s CPU    882.84s WALL (   78620 calls)
     vloc_psi     :   5605.46s CPU   5752.77s WALL (   78620 calls)
     add_vuspsi   :    841.56s CPU    845.35s WALL (   78620 calls)

     General routines
     calbec       :   1225.15s CPU   1236.99s WALL (   91400 calls)
     fft          :    384.51s CPU    396.09s WALL (   52511 calls)
     ffts         :      4.49s CPU      4.65s WALL (    2272 calls)
     fftw         :   6755.23s CPU   6972.20s WALL (14361770 calls)
     interpolate  :     11.57s CPU     12.07s WALL (    1152 calls)
     davcio       :      0.00s CPU      0.31s WALL (      20 calls)
 
     Parallel routines
 
     PWSCF        :      5h10m CPU      5h19m WALL

 
   This run was terminated on:   0:23:29  12Feb2022            

=------------------------------------------------------------------------------=
   JOB DONE.
=------------------------------------------------------------------------------=
