
     Program PWSCF v.6.7GPU starts on 17Feb2022 at 16:15:28 

     This program is part of the open-source Quantum ESPRESSO suite
     for quantum simulation of materials; please cite
         "P. Giannozzi et al., J. Phys.:Condens. Matter 21 395502 (2009);
         "P. Giannozzi et al., J. Phys.:Condens. Matter 29 465901 (2017);
         "P. Giannozzi et al., J. Chem. Phys. 152 154105 (2020);
          URL http://www.quantum-espresso.org", 
     in publications or presentations arising from this work. More details at
     http://www.quantum-espresso.org/quote

     Parallel version (MPI), running on     4 processors

     MPI processes distributed on     1 nodes
     R & G space division:  proc/nbgrp/npool/nimage =       4
     Reading input from /storage/coda1/p-amedford6/0/bchen380/C22/O2_C/qe_3989884.sched-torque.pace.gatech.edu/pw.inp
Warning: card &CELL ignored
Warning: card   CELL_DYNAMICS='IPI', ignored
Warning: card / ignored

     Current dimensions of program PWSCF are:
     Max number of different atomic species (ntypx) = 10
     Max number of k-points (npk) =  40000
     Max angular momentum in pseudopotentials (lmaxx) =  3
     Message from routine cell_base_init:
     DEPRECATED: use true lattice parameter, not A to a.u. conversion factor
     file O.UPF: wavefunction(s)  2P renormalized
     file C.UPF: wavefunction(s)  2S 2P renormalized

     **************************************************************************
     Initializing libbeef V0.1.2 with the BEEF-vdW functional.
     Citation: Wellendorff et al., PRB 85, 235149 (2012).
     **************************************************************************


     IMPORTANT: XC functional enforced from input :
     Exchange-correlation= BEEF-VDW
                           (   1   4  43  14   2   0   0)
     Any further DFT definition will be discarded
     Please, verify this is what you really want


     Subspace diagonalization in iterative solution of the eigenvalue problem:
     one sub-group per band group will be used
     scalapack distributed-memory algorithm (size of sub-group:  2*  2 procs)

  @ DRIVER MODE: Connecting to 
 qe_1064200_3989884.sched-torque.pace.gatech.eduddk320h7_scratch
  using UNIX socket
  @ DRIVER MODE: Message from server: STATUS
  @ DRIVER MODE: Message from server: INIT
  @ DRIVER MODE: Receiving replica           0          -1
  @ DRIVER MODE: Receiving encoded integer          25
  @ DRIVER MODE:  SCF:  T  FORCE:  T  STRESS:  F  VC:  F  ENSEMBLE:  F
  @ DRIVER MODE:  SCF:  T  FORCE:  T  STRESS:  F  VC:  F  ENSEMBLE:  F
 
     Parallelization info
     --------------------
     sticks:   dense  smooth     PW     G-vecs:    dense   smooth      PW
     Min        1024     409    114               198012    50121    7498
     Max        1025     410    115               198017    50127    7511
     Sum        4097    1637    459               792059   200495   30031
 
     Using Slab Decomposition
 


     bravais-lattice index     =            0
     lattice parameter (alat)  =       1.8897  a.u.
     unit-cell volume          =    6658.9804 (a.u.)^3
     number of atoms/cell      =           50
     number of atomic types    =            3
     number of electrons       =       394.00
     number of Kohn-Sham states=          207
     kinetic-energy cutoff     =      36.7493  Ry
     charge density cutoff     =     367.4932  Ry
     scf convergence threshold =      7.3E-08
     mixing beta               =       0.0500
     number of iterations used =            8  plain     mixing
     Exchange-correlation= BEEF-VDW
                           (   1   4  43  14   2   0   0)

     celldm(1)=   1.889726  celldm(2)=   0.000000  celldm(3)=   0.000000
     celldm(4)=   0.000000  celldm(5)=   0.000000  celldm(6)=   0.000000

     crystal axes: (cart. coord. in units of alat)
               a(1) = (   6.579727   0.000000   0.000000 )  
               a(2) = (  -0.000775   5.961596   0.000000 )  
               a(3) = (   0.000000   0.000000  25.155947 )  

     reciprocal axes: (cart. coord. in units 2 pi/alat)
               b(1) = (  0.151982  0.000020  0.000000 )  
               b(2) = (  0.000000  0.167740  0.000000 )  
               b(3) = (  0.000000  0.000000  0.039752 )  


     PseudoPot. # 1 for Ti read from file:
     /storage/coda1/p-amedford6/0/shared/rich_project_chbe-medford/medford-share/data/pseudos_module/espresso/esp_pseudos_old/Ti.UPF
     MD5 check sum: 88a00a6731bd790ddea75d31a80cb452
     Pseudo is Ultrasoft + core correction, Zval = 12.0
     Generated by new atomic code, or converted to UPF format
     Using radial grid of  851 points,  6 beta functions with: 
                l(1) =   0
                l(2) =   0
                l(3) =   1
                l(4) =   1
                l(5) =   2
                l(6) =   2
     Q(r) pseudized with  6 coefficients,  rinner =    1.000   1.000   1.000
                                                       1.000   1.000

     PseudoPot. # 2 for O  read from file:
     /storage/coda1/p-amedford6/0/shared/rich_project_chbe-medford/medford-share/data/pseudos_module/espresso/esp_pseudos_old/O.UPF
     MD5 check sum: 0234752ac141de4415c5fc33072bef88
     Pseudo is Projector augmented-wave + core cor, Zval =  6.0
     Generated using "atomic" code by A. Dal Corso  v.5.0.99 svn rev. 10869
     Shape of augmentation charge: BESSEL
     Using radial grid of 1095 points,  4 beta functions with: 
                l(1) =   0
                l(2) =   0
                l(3) =   1
                l(4) =   1
     Q(r) pseudized with 0 coefficients 


     PseudoPot. # 3 for C  read from file:
     /storage/coda1/p-amedford6/0/shared/rich_project_chbe-medford/medford-share/data/pseudos_module/espresso/esp_pseudos_old/C.UPF
     MD5 check sum: 5d2aebdfa2cae82b50a7e79e9516da0f
     Pseudo is Projector augmented-wave + core cor, Zval =  4.0
     Generated using "atomic" code by A. Dal Corso  v.5.1
     Shape of augmentation charge: PSQ
     Using radial grid of 1073 points,  4 beta functions with: 
                l(1) =   0
                l(2) =   0
                l(3) =   1
                l(4) =   1
     Q(r) pseudized with 0 coefficients 


     atomic species   valence    mass     pseudopotential
        Ti1           12.00    47.86700     Ti( 1.00)
        O1             6.00    15.99900     O ( 1.00)
        C1             4.00    12.01100     C ( 1.00)

     Starting magnetic structure 
     atomic species   magnetization
        Ti1          0.000
        O1           0.000
        C1           0.000

     No symmetry found



   Cartesian axes

     site n.     atom                  positions (alat units)
         1           Ti1 tau(   1) = (   0.0004258   2.9801865   6.0000000  )
         2           Ti1 tau(   2) = (   3.2906075   1.4906267   6.0002472  )
         3           O1  tau(   3) = (   0.0006271   0.0005054   7.9858123  )
         4           O1  tau(   4) = (   3.2906025   0.0005020   7.3038282  )
         5           O1  tau(   5) = (   4.5942328   1.4918067   9.2879030  )
         6           O1  tau(   6) = (   1.9868534   1.4903216   9.2879459  )
         7           Ti1 tau(   7) = (   3.2905683   2.9818392   9.1597947  )
         8           Ti1 tau(   8) = (   0.0009689   1.5052867   9.3302970  )
         9           O1  tau(   9) = (   3.2895355   0.0032066  11.3746090  )
        10           O1  tau(  10) = (   0.0007044   0.0001637  10.5878211  )
        11           O1  tau(  11) = (   1.2929265   1.4845788  12.6646637  )
        12           O1  tau(  12) = (   5.2874070   1.4867494  12.6584620  )
        13           Ti1 tau(  13) = (   6.5784067   2.9755188  12.8194869  )
        14           Ti1 tau(  14) = (   3.2892799   1.4939290  12.5060033  )
        15           O1  tau(  15) = (   6.5642033   5.9537293  14.7037698  )
        16           O1  tau(  16) = (   3.2919363   5.9505667  13.9836626  )
        17           O1  tau(  17) = (   4.5309332   1.4942454  16.1096435  )
        18           O1  tau(  18) = (   2.0337697   1.4960349  16.1129832  )
        19           Ti1 tau(  19) = (   3.2906310   2.9759294  15.7448506  )
        20           Ti1 tau(  20) = (   0.0250023   1.4086776  16.0050410  )
        21           O1  tau(  21) = (   3.2904802   0.0005063   4.7018136  )
        22           O1  tau(  22) = (  -0.0000158   5.9457188  17.2369263  )
        23           O1  tau(  23) = (   1.3043587   1.4918075   6.0039043  )
        24           O1  tau(  24) = (   5.2767064   1.4903225   6.0039473  )
        25           Ti1 tau(  25) = (   0.0000382   5.9609847   6.0000000  )
        26           Ti1 tau(  26) = (   3.2902200   4.4714249   6.0002472  )
        27           O1  tau(  27) = (   0.0002396   2.9813036   7.9858123  )
        28           O1  tau(  28) = (   3.2902150   2.9813002   7.3038282  )
        29           O1  tau(  29) = (   4.5938453   4.4726049   9.2879030  )
        30           O1  tau(  30) = (   1.9864658   4.4711199   9.2879459  )
        31           Ti1 tau(  31) = (   3.2909982   0.0016570   9.1583503  )
        32           Ti1 tau(  32) = (   0.0005865   4.4518293   9.3323505  )
        33           O1  tau(  33) = (   3.2890264   2.9772467  11.3652708  )
        34           O1  tau(  34) = (   0.0003571   2.9798178  10.5649370  )
        35           O1  tau(  35) = (   1.2897344   4.4680403  12.6592612  )
        36           O1  tau(  36) = (   5.2899965   4.4660360  12.6525382  )
        37           Ti1 tau(  37) = (   6.5774733   5.9566811  12.5535902  )
        38           Ti1 tau(  38) = (   3.2889102   4.4707137  12.4997948  )
        39           O1  tau(  39) = (   6.5768087   2.9565850  14.7427850  )
        40           O1  tau(  40) = (   3.2900695   2.9864406  13.9480390  )
        41           O1  tau(  41) = (   4.5320542   4.4464368  16.1296913  )
        42           O1  tau(  42) = (   2.0282512   4.4431761  16.1324800  )
        43           Ti1 tau(  43) = (   3.3131630   5.9480948  15.7851759  )
        44           Ti1 tau(  44) = (   0.0307700   4.5956047  16.0591435  )
        45           O1  tau(  45) = (   3.2900926   2.9813045   4.7018136  )
        46           C1  tau(  46) = (   6.5161528   2.9100774  17.6753604  )
        47           O1  tau(  47) = (   1.3039711   4.4726057   6.0039043  )
        48           O1  tau(  48) = (   5.2763189   4.4711207   6.0039473  )
        49           O1  tau(  49) = (   6.3949639   3.1657575  18.8538198  )
        50           O1  tau(  50) = (   6.2131409   2.4122203  20.0654639  )

     number of k points=    10  Fermi-Dirac smearing, width (Ry)=  0.0007
                       cart. coord. in units 2pi/alat
        k(    1) = (   0.0000000   0.0000000   0.0000000), wk =   0.0625000
        k(    2) = (   0.0000000   0.0419351   0.0000000), wk =   0.1250000
        k(    3) = (   0.0000000  -0.0838702   0.0000000), wk =   0.0625000
        k(    4) = (   0.0379955   0.0000049   0.0000000), wk =   0.1250000
        k(    5) = (   0.0379955   0.0419400   0.0000000), wk =   0.1250000
        k(    6) = (   0.0379955  -0.0838652   0.0000000), wk =   0.1250000
        k(    7) = (   0.0379955  -0.0419301   0.0000000), wk =   0.1250000
        k(    8) = (  -0.0759910  -0.0000099   0.0000000), wk =   0.0625000
        k(    9) = (  -0.0759910   0.0419252   0.0000000), wk =   0.1250000
        k(   10) = (  -0.0759910  -0.0838800   0.0000000), wk =   0.0625000

     Dense  grid:   792059 G-vectors     FFT dimensions: (  75,  72, 300)

     Smooth grid:   200495 G-vectors     FFT dimensions: (  48,  45, 192)

     Estimated max dynamical RAM per process >       1.49 GB

     Estimated total dynamical RAM >       5.97 GB

     Check: negative core charge=   -0.000008
     Generating pointlists ...
     new r_m :   0.7392 (alat units)  1.3968 (a.u.) for type    1
     new r_m :   0.4999 (alat units)  0.9447 (a.u.) for type    2
     new r_m :   0.4999 (alat units)  0.9447 (a.u.) for type    3

     Initial potential from superposition of free atoms

     starting charge  377.99920, renormalised to  394.00000

     negative rho (up, down):  1.169E-02 1.169E-02


     %%%%%%%%%%%%%%%%%%%%%%%%%%%%%%%%%%%%%%%%%%%%%%%%%%%%%%%%%%%%%%%%%%%%%%%%
     %                                                                      %
     % You are using vdW-DF, which was implemented by the Thonhauser group. %
     % Please cite the following two papers that made this development      %
     % possible and the two reviews that describe the various versions:     %
     %                                                                      %
     %   T. Thonhauser et al., PRL 115, 136402 (2015).                      %
     %   T. Thonhauser et al., PRB 76, 125112 (2007).                       %
     %   K. Berland et al., Rep. Prog. Phys. 78, 066501 (2015).             %
     %   D.C. Langreth et al., J. Phys.: Condens. Matter 21, 084203 (2009). %
     %                                                                      %
     %                                                                      %
     % If you are calculating the stress with vdW-DF, please also cite:     %
     %                                                                      %
     %   R. Sabatini et al., J. Phys.: Condens. Matter 24, 424209 (2012).   %
     %                                                                      %
     %%%%%%%%%%%%%%%%%%%%%%%%%%%%%%%%%%%%%%%%%%%%%%%%%%%%%%%%%%%%%%%%%%%%%%%%


 
     Adding external electric field

     Computed dipole along edir(3) : 
        Dipole               -8.3255 Ry au,        -21.1613 Debye
        Dipole field         -0.0157 Ry au, 
 
        Potential amp.        1.4564 Ry
        Total length         46.3494 bohr
 
 
     Adding external electric field

     Computed dipole along edir(3) : 
        Dipole               -8.3255 Ry au,        -21.1613 Debye
        Dipole field         -0.0157 Ry au, 
 
        Potential amp.        1.4564 Ry
        Total length         46.3494 bohr
 
     Starting wfcs are  296 randomized atomic wfcs
     Checking if some PAW data can be deallocated... 
  @ DRIVER MODE: Message from server: STATUS
  @ DRIVER MODE: Message from server: POSDATA
  @ DRIVER MODE: Reading and sharing cell 
  @ DRIVER MODE: Reading and sharing positions 
  @ DRIVER MODE: Received positions 

     total cpu time spent up to now is       75.6 secs

     Self-consistent Calculation

     iteration #  1     ecut=    36.75 Ry     beta= 0.05
     Davidson diagonalization with overlap
     ethr =  1.00E-02,  avg # of iterations =  2.0

     negative rho (up, down):  1.077E-02 1.077E-02
 
     Adding external electric field

     Computed dipole along edir(3) : 
        Dipole               33.2707 Ry au,         84.5656 Debye
        Dipole field          0.0628 Ry au, 
 
        Potential amp.       -5.8202 Ry
        Total length         46.3494 bohr
 
 
     Adding external electric field

     Computed dipole along edir(3) : 
        Dipole               33.2707 Ry au,         84.5656 Debye
        Dipole field          0.0628 Ry au, 
 
        Potential amp.       -5.8202 Ry
        Total length         46.3494 bohr
 

     total cpu time spent up to now is      343.6 secs

     total energy              =   -3095.99398794 Ry
     estimated scf accuracy    <    2802.08993166 Ry

     total magnetization       =    -0.00 Bohr mag/cell
     absolute magnetization    =     0.07 Bohr mag/cell

     iteration #  2     ecut=    36.75 Ry     beta= 0.05
     Davidson diagonalization with overlap
     ethr =  1.00E-02,  avg # of iterations = 15.5

     negative rho (up, down):  1.013E-02 1.013E-02
 
     Adding external electric field

     Computed dipole along edir(3) : 
        Dipole               -3.8207 Ry au,         -9.7112 Debye
        Dipole field         -0.0072 Ry au, 
 
        Potential amp.        0.6684 Ry
        Total length         46.3494 bohr
 
 
     Adding external electric field

     Computed dipole along edir(3) : 
        Dipole               -3.8207 Ry au,         -9.7112 Debye
        Dipole field         -0.0072 Ry au, 
 
        Potential amp.        0.6684 Ry
        Total length         46.3494 bohr
 

     total cpu time spent up to now is     1411.8 secs

     total energy              =   -2904.82689121 Ry
     estimated scf accuracy    <   56246.23565025 Ry

     total magnetization       =     0.10 Bohr mag/cell
     absolute magnetization    =     0.64 Bohr mag/cell

     iteration #  3     ecut=    36.75 Ry     beta= 0.05
     Davidson diagonalization with overlap
     ethr =  1.00E-02,  avg # of iterations = 16.1

     negative rho (up, down):  9.940E-03 9.940E-03
 
     Adding external electric field

     Computed dipole along edir(3) : 
        Dipole               -5.2240 Ry au,        -13.2782 Debye
        Dipole field         -0.0099 Ry au, 
 
        Potential amp.        0.9139 Ry
        Total length         46.3494 bohr
 
 
     Adding external electric field

     Computed dipole along edir(3) : 
        Dipole               -5.2240 Ry au,        -13.2782 Debye
        Dipole field         -0.0099 Ry au, 
 
        Potential amp.        0.9139 Ry
        Total length         46.3494 bohr
 

     total cpu time spent up to now is     2321.3 secs

     total energy              =   -3332.17623117 Ry
     estimated scf accuracy    <    2146.04942683 Ry

     total magnetization       =    -0.05 Bohr mag/cell
     absolute magnetization    =     0.33 Bohr mag/cell

     iteration #  4     ecut=    36.75 Ry     beta= 0.05
     Davidson diagonalization with overlap
     c_bands:  5 eigenvalues not converged
     ethr =  1.00E-02,  avg # of iterations =  7.0

     negative rho (up, down):  9.808E-03 9.822E-03
 
     Adding external electric field

     Computed dipole along edir(3) : 
        Dipole               -7.2710 Ry au,        -18.4810 Debye
        Dipole field         -0.0137 Ry au, 
 
        Potential amp.        1.2719 Ry
        Total length         46.3494 bohr
 
 
     Adding external electric field

     Computed dipole along edir(3) : 
        Dipole               -7.2710 Ry au,        -18.4810 Debye
        Dipole field         -0.0137 Ry au, 
 
        Potential amp.        1.2719 Ry
        Total length         46.3494 bohr
 

     total cpu time spent up to now is     2449.8 secs

     total energy              =   -3301.99969473 Ry
     estimated scf accuracy    <    1549.48357424 Ry

     total magnetization       =    -1.71 Bohr mag/cell
     absolute magnetization    =     2.66 Bohr mag/cell

     iteration #  5     ecut=    36.75 Ry     beta= 0.05
     Davidson diagonalization with overlap
     ethr =  1.00E-02,  avg # of iterations =  8.2

     negative rho (up, down):  9.498E-03 9.504E-03
 
     Adding external electric field

     Computed dipole along edir(3) : 
        Dipole               -5.4572 Ry au,        -13.8709 Debye
        Dipole field         -0.0103 Ry au, 
 
        Potential amp.        0.9547 Ry
        Total length         46.3494 bohr
 
 
     Adding external electric field

     Computed dipole along edir(3) : 
        Dipole               -5.4572 Ry au,        -13.8709 Debye
        Dipole field         -0.0103 Ry au, 
 
        Potential amp.        0.9547 Ry
        Total length         46.3494 bohr
 

     total cpu time spent up to now is     2925.3 secs

     total energy              =   -3343.02690707 Ry
     estimated scf accuracy    <     654.02545055 Ry

     total magnetization       =    -0.12 Bohr mag/cell
     absolute magnetization    =     0.54 Bohr mag/cell

     iteration #  6     ecut=    36.75 Ry     beta= 0.05
     Davidson diagonalization with overlap
     ethr =  1.00E-02,  avg # of iterations =  1.2

     negative rho (up, down):  9.635E-03 9.643E-03
 
     Adding external electric field

     Computed dipole along edir(3) : 
        Dipole               -4.8702 Ry au,        -12.3789 Debye
        Dipole field         -0.0092 Ry au, 
 
        Potential amp.        0.8520 Ry
        Total length         46.3494 bohr
 
 
     Adding external electric field

     Computed dipole along edir(3) : 
        Dipole               -4.8702 Ry au,        -12.3789 Debye
        Dipole field         -0.0092 Ry au, 
 
        Potential amp.        0.8520 Ry
        Total length         46.3494 bohr
 

     total cpu time spent up to now is     2998.8 secs

     total energy              =   -3347.72399524 Ry
     estimated scf accuracy    <      87.05432441 Ry

     total magnetization       =     0.09 Bohr mag/cell
     absolute magnetization    =     0.27 Bohr mag/cell

     iteration #  7     ecut=    36.75 Ry     beta= 0.05
     Davidson diagonalization with overlap
     ethr =  1.00E-02,  avg # of iterations =  1.1

     negative rho (up, down):  1.015E-02 1.016E-02
 
     Adding external electric field

     Computed dipole along edir(3) : 
        Dipole               -2.8656 Ry au,         -7.2837 Debye
        Dipole field         -0.0054 Ry au, 
 
        Potential amp.        0.5013 Ry
        Total length         46.3494 bohr
 
 
     Adding external electric field

     Computed dipole along edir(3) : 
        Dipole               -2.8656 Ry au,         -7.2837 Debye
        Dipole field         -0.0054 Ry au, 
 
        Potential amp.        0.5013 Ry
        Total length         46.3494 bohr
 

     total cpu time spent up to now is     3102.4 secs

     total energy              =   -3343.80693669 Ry
     estimated scf accuracy    <      82.12819045 Ry

     total magnetization       =    -0.01 Bohr mag/cell
     absolute magnetization    =     0.33 Bohr mag/cell

     iteration #  8     ecut=    36.75 Ry     beta= 0.05
     Davidson diagonalization with overlap
     ethr =  1.00E-02,  avg # of iterations =  8.6

     negative rho (up, down):  1.020E-02 1.021E-02
 
     Adding external electric field

     Computed dipole along edir(3) : 
        Dipole               -3.5619 Ry au,         -9.0535 Debye
        Dipole field         -0.0067 Ry au, 
 
        Potential amp.        0.6231 Ry
        Total length         46.3494 bohr
 
 
     Adding external electric field

     Computed dipole along edir(3) : 
        Dipole               -3.5619 Ry au,         -9.0535 Debye
        Dipole field         -0.0067 Ry au, 
 
        Potential amp.        0.6231 Ry
        Total length         46.3494 bohr
 

     total cpu time spent up to now is     3180.5 secs

     total energy              =   -3346.97571011 Ry
     estimated scf accuracy    <      10.83242631 Ry

     total magnetization       =     0.12 Bohr mag/cell
     absolute magnetization    =     0.27 Bohr mag/cell

     iteration #  9     ecut=    36.75 Ry     beta= 0.05
     Davidson diagonalization with overlap
     ethr =  2.75E-03,  avg # of iterations =  6.7

     negative rho (up, down):  1.051E-02 1.048E-02
 
     Adding external electric field

     Computed dipole along edir(3) : 
        Dipole               -4.6769 Ry au,        -11.8875 Debye
        Dipole field         -0.0088 Ry au, 
 
        Potential amp.        0.8182 Ry
        Total length         46.3494 bohr
 
 
     Adding external electric field

     Computed dipole along edir(3) : 
        Dipole               -4.6769 Ry au,        -11.8875 Debye
        Dipole field         -0.0088 Ry au, 
 
        Potential amp.        0.8182 Ry
        Total length         46.3494 bohr
 

     total cpu time spent up to now is     3255.1 secs

     total energy              =   -3346.51558940 Ry
     estimated scf accuracy    <       9.93694849 Ry

     total magnetization       =     0.00 Bohr mag/cell
     absolute magnetization    =     0.12 Bohr mag/cell

     iteration # 10     ecut=    36.75 Ry     beta= 0.05
     Davidson diagonalization with overlap
     c_bands:  1 eigenvalues not converged
     ethr =  2.52E-03,  avg # of iterations = 14.3

     negative rho (up, down):  1.216E-02 1.195E-02
 
     Adding external electric field

     Computed dipole along edir(3) : 
        Dipole               -3.3203 Ry au,         -8.4395 Debye
        Dipole field         -0.0063 Ry au, 
 
        Potential amp.        0.5808 Ry
        Total length         46.3494 bohr
 
 
     Adding external electric field

     Computed dipole along edir(3) : 
        Dipole               -3.3203 Ry au,         -8.4395 Debye
        Dipole field         -0.0063 Ry au, 
 
        Potential amp.        0.5808 Ry
        Total length         46.3494 bohr
 

     total cpu time spent up to now is     3344.5 secs

     total energy              =   -3347.24567711 Ry
     estimated scf accuracy    <      32.89771569 Ry

     total magnetization       =    -0.41 Bohr mag/cell
     absolute magnetization    =     0.68 Bohr mag/cell

     iteration # 11     ecut=    36.75 Ry     beta= 0.05
     Davidson diagonalization with overlap
     ethr =  2.52E-03,  avg # of iterations = 11.2

     negative rho (up, down):  1.214E-02 1.189E-02
 
     Adding external electric field

     Computed dipole along edir(3) : 
        Dipole               -4.0665 Ry au,        -10.3360 Debye
        Dipole field         -0.0077 Ry au, 
 
        Potential amp.        0.7114 Ry
        Total length         46.3494 bohr
 
 
     Adding external electric field

     Computed dipole along edir(3) : 
        Dipole               -4.0665 Ry au,        -10.3360 Debye
        Dipole field         -0.0077 Ry au, 
 
        Potential amp.        0.7114 Ry
        Total length         46.3494 bohr
 

     total cpu time spent up to now is     3434.9 secs

     total energy              =   -3349.03133996 Ry
     estimated scf accuracy    <     261.85118432 Ry

     total magnetization       =     0.13 Bohr mag/cell
     absolute magnetization    =     0.53 Bohr mag/cell

     iteration # 12     ecut=    36.75 Ry     beta= 0.05
     Davidson diagonalization with overlap
     ethr =  2.52E-03,  avg # of iterations =  1.8

     negative rho (up, down):  1.277E-02 1.242E-02
 
     Adding external electric field

     Computed dipole along edir(3) : 
        Dipole               -4.9319 Ry au,        -12.5358 Debye
        Dipole field         -0.0093 Ry au, 
 
        Potential amp.        0.8628 Ry
        Total length         46.3494 bohr
 
 
     Adding external electric field

     Computed dipole along edir(3) : 
        Dipole               -4.9319 Ry au,        -12.5358 Debye
        Dipole field         -0.0093 Ry au, 
 
        Potential amp.        0.8628 Ry
        Total length         46.3494 bohr
 

     total cpu time spent up to now is     3605.0 secs

     total energy              =   -3348.43474029 Ry
     estimated scf accuracy    <     145.04420151 Ry

     total magnetization       =    -0.01 Bohr mag/cell
     absolute magnetization    =     0.51 Bohr mag/cell

     iteration # 13     ecut=    36.75 Ry     beta= 0.05
     Davidson diagonalization with overlap
     ethr =  2.52E-03,  avg # of iterations =  3.5

     negative rho (up, down):  1.331E-02 1.294E-02
 
     Adding external electric field

     Computed dipole along edir(3) : 
        Dipole               -4.3161 Ry au,        -10.9704 Debye
        Dipole field         -0.0081 Ry au, 
 
        Potential amp.        0.7550 Ry
        Total length         46.3494 bohr
 
 
     Adding external electric field

     Computed dipole along edir(3) : 
        Dipole               -4.3161 Ry au,        -10.9704 Debye
        Dipole field         -0.0081 Ry au, 
 
        Potential amp.        0.7550 Ry
        Total length         46.3494 bohr
 

     total cpu time spent up to now is     3842.8 secs

     total energy              =   -3347.80268335 Ry
     estimated scf accuracy    <      73.43962725 Ry

     total magnetization       =    -0.28 Bohr mag/cell
     absolute magnetization    =     0.49 Bohr mag/cell

     iteration # 14     ecut=    36.75 Ry     beta= 0.05
     Davidson diagonalization with overlap
     ethr =  2.52E-03,  avg # of iterations =  1.4

     negative rho (up, down):  1.351E-02 1.324E-02
 
     Adding external electric field

     Computed dipole along edir(3) : 
        Dipole               -2.6496 Ry au,         -6.7345 Debye
        Dipole field         -0.0050 Ry au, 
 
        Potential amp.        0.4635 Ry
        Total length         46.3494 bohr
 
 
     Adding external electric field

     Computed dipole along edir(3) : 
        Dipole               -2.6496 Ry au,         -6.7345 Debye
        Dipole field         -0.0050 Ry au, 
 
        Potential amp.        0.4635 Ry
        Total length         46.3494 bohr
 

     total cpu time spent up to now is     3909.7 secs

     total energy              =   -3345.67576387 Ry
     estimated scf accuracy    <      57.22054518 Ry

     total magnetization       =    -0.33 Bohr mag/cell
     absolute magnetization    =     0.49 Bohr mag/cell

     iteration # 15     ecut=    36.75 Ry     beta= 0.05
     Davidson diagonalization with overlap
     ethr =  2.52E-03,  avg # of iterations =  2.6

     negative rho (up, down):  1.155E-02 1.149E-02
 
     Adding external electric field

     Computed dipole along edir(3) : 
        Dipole               -2.2421 Ry au,         -5.6989 Debye
        Dipole field         -0.0042 Ry au, 
 
        Potential amp.        0.3922 Ry
        Total length         46.3494 bohr
 
 
     Adding external electric field

     Computed dipole along edir(3) : 
        Dipole               -2.2421 Ry au,         -5.6989 Debye
        Dipole field         -0.0042 Ry au, 
 
        Potential amp.        0.3922 Ry
        Total length         46.3494 bohr
 

     total cpu time spent up to now is     3979.4 secs

     total energy              =   -3343.82203681 Ry
     estimated scf accuracy    <      79.62114705 Ry

     total magnetization       =    -0.10 Bohr mag/cell
     absolute magnetization    =     0.42 Bohr mag/cell

     iteration # 16     ecut=    36.75 Ry     beta= 0.05
     Davidson diagonalization with overlap
     ethr =  2.52E-03,  avg # of iterations = 13.2

     negative rho (up, down):  1.221E-02 1.203E-02
 
     Adding external electric field

     Computed dipole along edir(3) : 
        Dipole               -2.6284 Ry au,         -6.6807 Debye
        Dipole field         -0.0050 Ry au, 
 
        Potential amp.        0.4598 Ry
        Total length         46.3494 bohr
 
 
     Adding external electric field

     Computed dipole along edir(3) : 
        Dipole               -2.6284 Ry au,         -6.6807 Debye
        Dipole field         -0.0050 Ry au, 
 
        Potential amp.        0.4598 Ry
        Total length         46.3494 bohr
 

     total cpu time spent up to now is     4067.7 secs

     total energy              =   -3345.12317382 Ry
     estimated scf accuracy    <       8.14411663 Ry

     total magnetization       =     0.00 Bohr mag/cell
     absolute magnetization    =     0.23 Bohr mag/cell

     iteration # 17     ecut=    36.75 Ry     beta= 0.05
     Davidson diagonalization with overlap
     ethr =  2.07E-03,  avg # of iterations =  1.7

     negative rho (up, down):  1.190E-02 1.176E-02
 
     Adding external electric field

     Computed dipole along edir(3) : 
        Dipole               -2.4709 Ry au,         -6.2804 Debye
        Dipole field         -0.0047 Ry au, 
 
        Potential amp.        0.4322 Ry
        Total length         46.3494 bohr
 
 
     Adding external electric field

     Computed dipole along edir(3) : 
        Dipole               -2.4709 Ry au,         -6.2804 Debye
        Dipole field         -0.0047 Ry au, 
 
        Potential amp.        0.4322 Ry
        Total length         46.3494 bohr
 

     total cpu time spent up to now is     4145.7 secs

     total energy              =   -3345.47261773 Ry
     estimated scf accuracy    <      17.51116904 Ry

     total magnetization       =    -0.08 Bohr mag/cell
     absolute magnetization    =     0.36 Bohr mag/cell

     iteration # 18     ecut=    36.75 Ry     beta= 0.05
     Davidson diagonalization with overlap
     ethr =  2.07E-03,  avg # of iterations =  1.1

     negative rho (up, down):  1.173E-02 1.162E-02
 
     Adding external electric field

     Computed dipole along edir(3) : 
        Dipole               -2.2692 Ry au,         -5.7677 Debye
        Dipole field         -0.0043 Ry au, 
 
        Potential amp.        0.3970 Ry
        Total length         46.3494 bohr
 
 
     Adding external electric field

     Computed dipole along edir(3) : 
        Dipole               -2.2692 Ry au,         -5.7677 Debye
        Dipole field         -0.0043 Ry au, 
 
        Potential amp.        0.3970 Ry
        Total length         46.3494 bohr
 

     total cpu time spent up to now is     4288.7 secs

     total energy              =   -3345.25424405 Ry
     estimated scf accuracy    <      17.35490067 Ry

     total magnetization       =    -0.06 Bohr mag/cell
     absolute magnetization    =     0.36 Bohr mag/cell

     iteration # 19     ecut=    36.75 Ry     beta= 0.05
     Davidson diagonalization with overlap
     ethr =  2.07E-03,  avg # of iterations =  1.2

     negative rho (up, down):  1.156E-02 1.147E-02
 
     Adding external electric field

     Computed dipole along edir(3) : 
        Dipole               -2.4461 Ry au,         -6.2174 Debye
        Dipole field         -0.0046 Ry au, 
 
        Potential amp.        0.4279 Ry
        Total length         46.3494 bohr
 
 
     Adding external electric field

     Computed dipole along edir(3) : 
        Dipole               -2.4461 Ry au,         -6.2174 Debye
        Dipole field         -0.0046 Ry au, 
 
        Potential amp.        0.4279 Ry
        Total length         46.3494 bohr
 

     total cpu time spent up to now is     4357.6 secs

     total energy              =   -3345.34674936 Ry
     estimated scf accuracy    <       6.92734563 Ry

     total magnetization       =     0.05 Bohr mag/cell
     absolute magnetization    =     0.29 Bohr mag/cell

     iteration # 20     ecut=    36.75 Ry     beta= 0.05
     Davidson diagonalization with overlap
     ethr =  1.76E-03,  avg # of iterations =  1.3

     negative rho (up, down):  1.092E-02 1.091E-02
 
     Adding external electric field

     Computed dipole along edir(3) : 
        Dipole               -2.3142 Ry au,         -5.8822 Debye
        Dipole field         -0.0044 Ry au, 
 
        Potential amp.        0.4048 Ry
        Total length         46.3494 bohr
 
 
     Adding external electric field

     Computed dipole along edir(3) : 
        Dipole               -2.3142 Ry au,         -5.8822 Debye
        Dipole field         -0.0044 Ry au, 
 
        Potential amp.        0.4048 Ry
        Total length         46.3494 bohr
 

     total cpu time spent up to now is     4421.5 secs

     total energy              =   -3345.15320551 Ry
     estimated scf accuracy    <      16.39869442 Ry

     total magnetization       =    -0.03 Bohr mag/cell
     absolute magnetization    =     0.32 Bohr mag/cell

     iteration # 21     ecut=    36.75 Ry     beta= 0.05
     Davidson diagonalization with overlap
     ethr =  1.76E-03,  avg # of iterations =  2.9

     negative rho (up, down):  1.072E-02 1.073E-02
 
     Adding external electric field

     Computed dipole along edir(3) : 
        Dipole               -1.6210 Ry au,         -4.1202 Debye
        Dipole field         -0.0031 Ry au, 
 
        Potential amp.        0.2836 Ry
        Total length         46.3494 bohr
 
 
     Adding external electric field

     Computed dipole along edir(3) : 
        Dipole               -1.6210 Ry au,         -4.1202 Debye
        Dipole field         -0.0031 Ry au, 
 
        Potential amp.        0.2836 Ry
        Total length         46.3494 bohr
 

     total cpu time spent up to now is     4489.3 secs

     total energy              =   -3344.86212246 Ry
     estimated scf accuracy    <      10.42122669 Ry

     total magnetization       =    -0.12 Bohr mag/cell
     absolute magnetization    =     0.29 Bohr mag/cell

     iteration # 22     ecut=    36.75 Ry     beta= 0.05
     Davidson diagonalization with overlap
     ethr =  1.76E-03,  avg # of iterations =  2.5

     negative rho (up, down):  1.058E-02 1.061E-02
 
     Adding external electric field

     Computed dipole along edir(3) : 
        Dipole               -1.5045 Ry au,         -3.8241 Debye
        Dipole field         -0.0028 Ry au, 
 
        Potential amp.        0.2632 Ry
        Total length         46.3494 bohr
 
 
     Adding external electric field

     Computed dipole along edir(3) : 
        Dipole               -1.5045 Ry au,         -3.8241 Debye
        Dipole field         -0.0028 Ry au, 
 
        Potential amp.        0.2632 Ry
        Total length         46.3494 bohr
 

     total cpu time spent up to now is     4673.3 secs

     total energy              =   -3345.07178045 Ry
     estimated scf accuracy    <       0.64534471 Ry

     total magnetization       =     0.14 Bohr mag/cell
     absolute magnetization    =     0.32 Bohr mag/cell

     iteration # 23     ecut=    36.75 Ry     beta= 0.05
     Davidson diagonalization with overlap
     c_bands:  2 eigenvalues not converged
     c_bands:  4 eigenvalues not converged
     c_bands:  2 eigenvalues not converged
     c_bands:  2 eigenvalues not converged
     c_bands:  1 eigenvalues not converged
     c_bands:  5 eigenvalues not converged
     c_bands:  2 eigenvalues not converged
     c_bands:  5 eigenvalues not converged
     c_bands:  1 eigenvalues not converged
     c_bands:  2 eigenvalues not converged
     c_bands:  2 eigenvalues not converged
     c_bands:  2 eigenvalues not converged
     c_bands:  4 eigenvalues not converged
     c_bands:  2 eigenvalues not converged
     ethr =  1.64E-04,  avg # of iterations = 19.4

     negative rho (up, down):  1.061E-02 1.064E-02
 
     Adding external electric field

     Computed dipole along edir(3) : 
        Dipole               -1.5103 Ry au,         -3.8389 Debye
        Dipole field         -0.0029 Ry au, 
 
        Potential amp.        0.2642 Ry
        Total length         46.3494 bohr
 
 
     Adding external electric field

     Computed dipole along edir(3) : 
        Dipole               -1.5103 Ry au,         -3.8389 Debye
        Dipole field         -0.0029 Ry au, 
 
        Potential amp.        0.2642 Ry
        Total length         46.3494 bohr
 

     total cpu time spent up to now is     4809.5 secs

     total energy              =   -3345.19956364 Ry
     estimated scf accuracy    <      71.25213017 Ry

     total magnetization       =     0.02 Bohr mag/cell
     absolute magnetization    =     0.10 Bohr mag/cell

     iteration # 24     ecut=    36.75 Ry     beta= 0.05
     Davidson diagonalization with overlap
     ethr =  1.64E-04,  avg # of iterations =  2.1

     negative rho (up, down):  1.062E-02 1.065E-02
 
     Adding external electric field

     Computed dipole along edir(3) : 
        Dipole               -1.5438 Ry au,         -3.9238 Debye
        Dipole field         -0.0029 Ry au, 
 
        Potential amp.        0.2701 Ry
        Total length         46.3494 bohr
 
 
     Adding external electric field

     Computed dipole along edir(3) : 
        Dipole               -1.5438 Ry au,         -3.9238 Debye
        Dipole field         -0.0029 Ry au, 
 
        Potential amp.        0.2701 Ry
        Total length         46.3494 bohr
 

     total cpu time spent up to now is     4875.8 secs

     total energy              =   -3345.30156866 Ry
     estimated scf accuracy    <       5.35897866 Ry

     total magnetization       =     0.03 Bohr mag/cell
     absolute magnetization    =     0.15 Bohr mag/cell

     iteration # 25     ecut=    36.75 Ry     beta= 0.05
     Davidson diagonalization with overlap
     ethr =  1.64E-04,  avg # of iterations =  1.0

     negative rho (up, down):  1.064E-02 1.066E-02
 
     Adding external electric field

     Computed dipole along edir(3) : 
        Dipole               -1.5690 Ry au,         -3.9881 Debye
        Dipole field         -0.0030 Ry au, 
 
        Potential amp.        0.2745 Ry
        Total length         46.3494 bohr
 
 
     Adding external electric field

     Computed dipole along edir(3) : 
        Dipole               -1.5690 Ry au,         -3.9881 Debye
        Dipole field         -0.0030 Ry au, 
 
        Potential amp.        0.2745 Ry
        Total length         46.3494 bohr
 

     total cpu time spent up to now is     4940.7 secs

     total energy              =   -3345.25921090 Ry
     estimated scf accuracy    <       5.19664852 Ry

     total magnetization       =     0.04 Bohr mag/cell
     absolute magnetization    =     0.15 Bohr mag/cell

     iteration # 26     ecut=    36.75 Ry     beta= 0.05
     Davidson diagonalization with overlap
     ethr =  1.64E-04,  avg # of iterations =  1.2

     negative rho (up, down):  1.064E-02 1.066E-02
 
     Adding external electric field

     Computed dipole along edir(3) : 
        Dipole               -1.5338 Ry au,         -3.8986 Debye
        Dipole field         -0.0029 Ry au, 
 
        Potential amp.        0.2683 Ry
        Total length         46.3494 bohr
 
 
     Adding external electric field

     Computed dipole along edir(3) : 
        Dipole               -1.5338 Ry au,         -3.8986 Debye
        Dipole field         -0.0029 Ry au, 
 
        Potential amp.        0.2683 Ry
        Total length         46.3494 bohr
 

     total cpu time spent up to now is     5035.7 secs

     total energy              =   -3345.22923653 Ry
     estimated scf accuracy    <       4.78184470 Ry

     total magnetization       =     0.05 Bohr mag/cell
     absolute magnetization    =     0.17 Bohr mag/cell

     iteration # 27     ecut=    36.75 Ry     beta= 0.05
     Davidson diagonalization with overlap
     ethr =  1.64E-04,  avg # of iterations =  5.5

     negative rho (up, down):  1.060E-02 1.063E-02
 
     Adding external electric field

     Computed dipole along edir(3) : 
        Dipole               -1.3685 Ry au,         -3.4783 Debye
        Dipole field         -0.0026 Ry au, 
 
        Potential amp.        0.2394 Ry
        Total length         46.3494 bohr
 
 
     Adding external electric field

     Computed dipole along edir(3) : 
        Dipole               -1.3685 Ry au,         -3.4783 Debye
        Dipole field         -0.0026 Ry au, 
 
        Potential amp.        0.2394 Ry
        Total length         46.3494 bohr
 

     total cpu time spent up to now is     5107.5 secs

     total energy              =   -3345.22202683 Ry
     estimated scf accuracy    <       4.25057659 Ry

     total magnetization       =     0.06 Bohr mag/cell
     absolute magnetization    =     0.19 Bohr mag/cell

     iteration # 28     ecut=    36.75 Ry     beta= 0.05
     Davidson diagonalization with overlap
     ethr =  1.64E-04,  avg # of iterations =  1.6

     negative rho (up, down):  1.052E-02 1.058E-02
 
     Adding external electric field

     Computed dipole along edir(3) : 
        Dipole               -0.8507 Ry au,         -2.1622 Debye
        Dipole field         -0.0016 Ry au, 
 
        Potential amp.        0.1488 Ry
        Total length         46.3494 bohr
 
 
     Adding external electric field

     Computed dipole along edir(3) : 
        Dipole               -0.8507 Ry au,         -2.1622 Debye
        Dipole field         -0.0016 Ry au, 
 
        Potential amp.        0.1488 Ry
        Total length         46.3494 bohr
 

     total cpu time spent up to now is     5174.1 secs

     total energy              =   -3345.15577859 Ry
     estimated scf accuracy    <       4.70089765 Ry

     total magnetization       =     0.12 Bohr mag/cell
     absolute magnetization    =     0.23 Bohr mag/cell

     iteration # 29     ecut=    36.75 Ry     beta= 0.05
     Davidson diagonalization with overlap
     c_bands:  2 eigenvalues not converged
     c_bands:  1 eigenvalues not converged
     c_bands:  1 eigenvalues not converged
     c_bands:  3 eigenvalues not converged
     c_bands:  1 eigenvalues not converged
     c_bands:  2 eigenvalues not converged
     c_bands:  1 eigenvalues not converged
     c_bands:  1 eigenvalues not converged
     ethr =  1.64E-04,  avg # of iterations = 17.9

     negative rho (up, down):  1.052E-02 1.057E-02
 
     Adding external electric field

     Computed dipole along edir(3) : 
        Dipole               -0.8780 Ry au,         -2.2316 Debye
        Dipole field         -0.0017 Ry au, 
 
        Potential amp.        0.1536 Ry
        Total length         46.3494 bohr
 
 
     Adding external electric field

     Computed dipole along edir(3) : 
        Dipole               -0.8780 Ry au,         -2.2316 Debye
        Dipole field         -0.0017 Ry au, 
 
        Potential amp.        0.1536 Ry
        Total length         46.3494 bohr
 

     total cpu time spent up to now is     5501.6 secs

     total energy              =   -3345.26381409 Ry
     estimated scf accuracy    <       1.21699358 Ry

     total magnetization       =     0.00 Bohr mag/cell
     absolute magnetization    =     0.08 Bohr mag/cell

     iteration # 30     ecut=    36.75 Ry     beta= 0.05
     Davidson diagonalization with overlap
     ethr =  1.64E-04,  avg # of iterations =  1.9

     negative rho (up, down):  1.047E-02 1.053E-02
 
     Adding external electric field

     Computed dipole along edir(3) : 
        Dipole               -0.7523 Ry au,         -1.9120 Debye
        Dipole field         -0.0014 Ry au, 
 
        Potential amp.        0.1316 Ry
        Total length         46.3494 bohr
 
 
     Adding external electric field

     Computed dipole along edir(3) : 
        Dipole               -0.7523 Ry au,         -1.9120 Debye
        Dipole field         -0.0014 Ry au, 
 
        Potential amp.        0.1316 Ry
        Total length         46.3494 bohr
 

     total cpu time spent up to now is     5597.6 secs

     total energy              =   -3345.29504948 Ry
     estimated scf accuracy    <       1.19925268 Ry

     total magnetization       =    -0.00 Bohr mag/cell
     absolute magnetization    =     0.08 Bohr mag/cell

     iteration # 31     ecut=    36.75 Ry     beta= 0.05
     Davidson diagonalization with overlap
     ethr =  1.64E-04,  avg # of iterations =  1.1

     negative rho (up, down):  1.059E-02 1.062E-02
 
     Adding external electric field

     Computed dipole along edir(3) : 
        Dipole               -0.9010 Ry au,         -2.2902 Debye
        Dipole field         -0.0017 Ry au, 
 
        Potential amp.        0.1576 Ry
        Total length         46.3494 bohr
 
 
     Adding external electric field

     Computed dipole along edir(3) : 
        Dipole               -0.9010 Ry au,         -2.2902 Debye
        Dipole field         -0.0017 Ry au, 
 
        Potential amp.        0.1576 Ry
        Total length         46.3494 bohr
 

     total cpu time spent up to now is     5661.4 secs

     total energy              =   -3345.21349338 Ry
     estimated scf accuracy    <       1.35702303 Ry

     total magnetization       =    -0.00 Bohr mag/cell
     absolute magnetization    =     0.08 Bohr mag/cell

     iteration # 32     ecut=    36.75 Ry     beta= 0.05
     Davidson diagonalization with overlap
     ethr =  1.64E-04,  avg # of iterations =  4.6

     negative rho (up, down):  1.051E-02 1.054E-02
 
     Adding external electric field

     Computed dipole along edir(3) : 
        Dipole               -0.9961 Ry au,         -2.5318 Debye
        Dipole field         -0.0019 Ry au, 
 
        Potential amp.        0.1742 Ry
        Total length         46.3494 bohr
 
 
     Adding external electric field

     Computed dipole along edir(3) : 
        Dipole               -0.9961 Ry au,         -2.5318 Debye
        Dipole field         -0.0019 Ry au, 
 
        Potential amp.        0.1742 Ry
        Total length         46.3494 bohr
 

     total cpu time spent up to now is     5732.6 secs

     total energy              =   -3345.21731046 Ry
     estimated scf accuracy    <       0.57591198 Ry

     total magnetization       =     0.14 Bohr mag/cell
     absolute magnetization    =     0.22 Bohr mag/cell

     iteration # 33     ecut=    36.75 Ry     beta= 0.05
     Davidson diagonalization with overlap
     ethr =  1.46E-04,  avg # of iterations =  1.1

     negative rho (up, down):  1.044E-02 1.048E-02
 
     Adding external electric field

     Computed dipole along edir(3) : 
        Dipole               -0.9802 Ry au,         -2.4913 Debye
        Dipole field         -0.0018 Ry au, 
 
        Potential amp.        0.1715 Ry
        Total length         46.3494 bohr
 
 
     Adding external electric field

     Computed dipole along edir(3) : 
        Dipole               -0.9802 Ry au,         -2.4913 Debye
        Dipole field         -0.0018 Ry au, 
 
        Potential amp.        0.1715 Ry
        Total length         46.3494 bohr
 

     total cpu time spent up to now is     5796.8 secs

     total energy              =   -3345.22211481 Ry
     estimated scf accuracy    <       0.96923141 Ry

     total magnetization       =     0.00 Bohr mag/cell
     absolute magnetization    =     0.08 Bohr mag/cell

     iteration # 34     ecut=    36.75 Ry     beta= 0.05
     Davidson diagonalization with overlap
     ethr =  1.46E-04,  avg # of iterations =  1.0

     negative rho (up, down):  1.036E-02 1.039E-02
 
     Adding external electric field

     Computed dipole along edir(3) : 
        Dipole               -0.7946 Ry au,         -2.0197 Debye
        Dipole field         -0.0015 Ry au, 
 
        Potential amp.        0.1390 Ry
        Total length         46.3494 bohr
 
 
     Adding external electric field

     Computed dipole along edir(3) : 
        Dipole               -0.7946 Ry au,         -2.0197 Debye
        Dipole field         -0.0015 Ry au, 
 
        Potential amp.        0.1390 Ry
        Total length         46.3494 bohr
 

     total cpu time spent up to now is     5860.4 secs

     total energy              =   -3345.21727425 Ry
     estimated scf accuracy    <       0.93895843 Ry

     total magnetization       =     0.00 Bohr mag/cell
     absolute magnetization    =     0.07 Bohr mag/cell

     iteration # 35     ecut=    36.75 Ry     beta= 0.05
     Davidson diagonalization with overlap
     ethr =  1.46E-04,  avg # of iterations =  1.0

     negative rho (up, down):  1.044E-02 1.044E-02
 
     Adding external electric field

     Computed dipole along edir(3) : 
        Dipole               -0.7850 Ry au,         -1.9952 Debye
        Dipole field         -0.0015 Ry au, 
 
        Potential amp.        0.1373 Ry
        Total length         46.3494 bohr
 
 
     Adding external electric field

     Computed dipole along edir(3) : 
        Dipole               -0.7850 Ry au,         -1.9952 Debye
        Dipole field         -0.0015 Ry au, 
 
        Potential amp.        0.1373 Ry
        Total length         46.3494 bohr
 

     total cpu time spent up to now is     5923.5 secs

     total energy              =   -3345.16563877 Ry
     estimated scf accuracy    <       0.83831703 Ry

     total magnetization       =     0.02 Bohr mag/cell
     absolute magnetization    =     0.08 Bohr mag/cell

     iteration # 36     ecut=    36.75 Ry     beta= 0.05
     Davidson diagonalization with overlap
     c_bands:  3 eigenvalues not converged
     c_bands:  1 eigenvalues not converged
     c_bands:  1 eigenvalues not converged
     c_bands:  1 eigenvalues not converged
     c_bands:  1 eigenvalues not converged
     c_bands:  1 eigenvalues not converged
     c_bands:  5 eigenvalues not converged
     ethr =  1.46E-04,  avg # of iterations = 16.0

     negative rho (up, down):  1.044E-02 1.044E-02
 
     Adding external electric field

     Computed dipole along edir(3) : 
        Dipole               -0.7805 Ry au,         -1.9837 Debye
        Dipole field         -0.0015 Ry au, 
 
        Potential amp.        0.1365 Ry
        Total length         46.3494 bohr
 
 
     Adding external electric field

     Computed dipole along edir(3) : 
        Dipole               -0.7805 Ry au,         -1.9837 Debye
        Dipole field         -0.0015 Ry au, 
 
        Potential amp.        0.1365 Ry
        Total length         46.3494 bohr
 

     total cpu time spent up to now is     6024.4 secs

     total energy              =   -3345.32616517 Ry
     estimated scf accuracy    <       4.37518377 Ry

     total magnetization       =    -0.03 Bohr mag/cell
     absolute magnetization    =     0.22 Bohr mag/cell

     iteration # 37     ecut=    36.75 Ry     beta= 0.05
     Davidson diagonalization with overlap
     ethr =  1.46E-04,  avg # of iterations =  2.0

     negative rho (up, down):  1.023E-02 1.026E-02
 
     Adding external electric field

     Computed dipole along edir(3) : 
        Dipole               -0.7674 Ry au,         -1.9506 Debye
        Dipole field         -0.0014 Ry au, 
 
        Potential amp.        0.1343 Ry
        Total length         46.3494 bohr
 
 
     Adding external electric field

     Computed dipole along edir(3) : 
        Dipole               -0.7674 Ry au,         -1.9506 Debye
        Dipole field         -0.0014 Ry au, 
 
        Potential amp.        0.1343 Ry
        Total length         46.3494 bohr
 

     total cpu time spent up to now is     6190.4 secs

     total energy              =   -3345.01328728 Ry
     estimated scf accuracy    <       9.50750932 Ry

     total magnetization       =     0.02 Bohr mag/cell
     absolute magnetization    =     0.38 Bohr mag/cell

     iteration # 38     ecut=    36.75 Ry     beta= 0.05
     Davidson diagonalization with overlap
     c_bands:  1 eigenvalues not converged
     c_bands:  2 eigenvalues not converged
     c_bands:  2 eigenvalues not converged
     c_bands:  1 eigenvalues not converged
     c_bands:  1 eigenvalues not converged
     c_bands:  5 eigenvalues not converged
     c_bands:  2 eigenvalues not converged
     c_bands:  3 eigenvalues not converged
     ethr =  1.46E-04,  avg # of iterations = 14.6

     negative rho (up, down):  1.039E-02 1.039E-02
 
     Adding external electric field

     Computed dipole along edir(3) : 
        Dipole               -0.8596 Ry au,         -2.1849 Debye
        Dipole field         -0.0016 Ry au, 
 
        Potential amp.        0.1504 Ry
        Total length         46.3494 bohr
 
 
     Adding external electric field

     Computed dipole along edir(3) : 
        Dipole               -0.8596 Ry au,         -2.1849 Debye
        Dipole field         -0.0016 Ry au, 
 
        Potential amp.        0.1504 Ry
        Total length         46.3494 bohr
 

     total cpu time spent up to now is     6283.0 secs

     total energy              =   -3345.16161457 Ry
     estimated scf accuracy    <       4.38868026 Ry

     total magnetization       =     0.23 Bohr mag/cell
     absolute magnetization    =     0.33 Bohr mag/cell

     iteration # 39     ecut=    36.75 Ry     beta= 0.05
     Davidson diagonalization with overlap
     ethr =  1.46E-04,  avg # of iterations =  8.2

     negative rho (up, down):  1.029E-02 1.029E-02
 
     Adding external electric field

     Computed dipole along edir(3) : 
        Dipole               -0.9579 Ry au,         -2.4347 Debye
        Dipole field         -0.0018 Ry au, 
 
        Potential amp.        0.1676 Ry
        Total length         46.3494 bohr
 
 
     Adding external electric field

     Computed dipole along edir(3) : 
        Dipole               -0.9579 Ry au,         -2.4347 Debye
        Dipole field         -0.0018 Ry au, 
 
        Potential amp.        0.1676 Ry
        Total length         46.3494 bohr
 

     total cpu time spent up to now is     6360.3 secs

     total energy              =   -3345.22204030 Ry
     estimated scf accuracy    <       6.21424887 Ry

     total magnetization       =     0.04 Bohr mag/cell
     absolute magnetization    =     0.25 Bohr mag/cell

     iteration # 40     ecut=    36.75 Ry     beta= 0.05
     Davidson diagonalization with overlap
     ethr =  1.46E-04,  avg # of iterations =  2.2

     negative rho (up, down):  1.024E-02 1.026E-02
 
     Adding external electric field

     Computed dipole along edir(3) : 
        Dipole               -0.9182 Ry au,         -2.3339 Debye
        Dipole field         -0.0017 Ry au, 
 
        Potential amp.        0.1606 Ry
        Total length         46.3494 bohr
 
 
     Adding external electric field

     Computed dipole along edir(3) : 
        Dipole               -0.9182 Ry au,         -2.3339 Debye
        Dipole field         -0.0017 Ry au, 
 
        Potential amp.        0.1606 Ry
        Total length         46.3494 bohr
 

     total cpu time spent up to now is     6445.5 secs

     total energy              =   -3345.18050019 Ry
     estimated scf accuracy    <       2.36340070 Ry

     total magnetization       =     0.01 Bohr mag/cell
     absolute magnetization    =     0.25 Bohr mag/cell

     iteration # 41     ecut=    36.75 Ry     beta= 0.05
     Davidson diagonalization with overlap
     ethr =  1.46E-04,  avg # of iterations =  4.5

     negative rho (up, down):  1.024E-02 1.027E-02
 
     Adding external electric field

     Computed dipole along edir(3) : 
        Dipole               -0.8704 Ry au,         -2.2123 Debye
        Dipole field         -0.0016 Ry au, 
 
        Potential amp.        0.1523 Ry
        Total length         46.3494 bohr
 
 
     Adding external electric field

     Computed dipole along edir(3) : 
        Dipole               -0.8704 Ry au,         -2.2123 Debye
        Dipole field         -0.0016 Ry au, 
 
        Potential amp.        0.1523 Ry
        Total length         46.3494 bohr
 

     total cpu time spent up to now is     6516.1 secs

     total energy              =   -3345.18568792 Ry
     estimated scf accuracy    <       1.18151988 Ry

     total magnetization       =     0.16 Bohr mag/cell
     absolute magnetization    =     0.20 Bohr mag/cell

     iteration # 42     ecut=    36.75 Ry     beta= 0.05
     Davidson diagonalization with overlap
     ethr =  1.46E-04,  avg # of iterations =  2.1

     negative rho (up, down):  1.019E-02 1.022E-02
 
     Adding external electric field

     Computed dipole along edir(3) : 
        Dipole               -0.8827 Ry au,         -2.2435 Debye
        Dipole field         -0.0017 Ry au, 
 
        Potential amp.        0.1544 Ry
        Total length         46.3494 bohr
 
 
     Adding external electric field

     Computed dipole along edir(3) : 
        Dipole               -0.8827 Ry au,         -2.2435 Debye
        Dipole field         -0.0017 Ry au, 
 
        Potential amp.        0.1544 Ry
        Total length         46.3494 bohr
 

     total cpu time spent up to now is     6602.4 secs

     total energy              =   -3345.19177640 Ry
     estimated scf accuracy    <       0.09996904 Ry

     total magnetization       =     0.27 Bohr mag/cell
     absolute magnetization    =     0.33 Bohr mag/cell

     iteration # 43     ecut=    36.75 Ry     beta= 0.05
     Davidson diagonalization with overlap
     c_bands:  1 eigenvalues not converged
     c_bands:  2 eigenvalues not converged
     c_bands:  1 eigenvalues not converged
     ethr =  2.54E-05,  avg # of iterations =  8.9

     negative rho (up, down):  1.020E-02 1.024E-02
 
     Adding external electric field

     Computed dipole along edir(3) : 
        Dipole               -0.8906 Ry au,         -2.2636 Debye
        Dipole field         -0.0017 Ry au, 
 
        Potential amp.        0.1558 Ry
        Total length         46.3494 bohr
 
 
     Adding external electric field

     Computed dipole along edir(3) : 
        Dipole               -0.8906 Ry au,         -2.2636 Debye
        Dipole field         -0.0017 Ry au, 
 
        Potential amp.        0.1558 Ry
        Total length         46.3494 bohr
 

     total cpu time spent up to now is     6682.3 secs

     total energy              =   -3345.19379367 Ry
     estimated scf accuracy    <       1.89026211 Ry

     total magnetization       =     0.22 Bohr mag/cell
     absolute magnetization    =     0.29 Bohr mag/cell

     iteration # 44     ecut=    36.75 Ry     beta= 0.05
     Davidson diagonalization with overlap
     c_bands:  5 eigenvalues not converged
     ethr =  2.54E-05,  avg # of iterations =  3.9

     negative rho (up, down):  1.020E-02 1.023E-02
 
     Adding external electric field

     Computed dipole along edir(3) : 
        Dipole               -0.8978 Ry au,         -2.2821 Debye
        Dipole field         -0.0017 Ry au, 
 
        Potential amp.        0.1571 Ry
        Total length         46.3494 bohr
 
 
     Adding external electric field

     Computed dipole along edir(3) : 
        Dipole               -0.8978 Ry au,         -2.2821 Debye
        Dipole field         -0.0017 Ry au, 
 
        Potential amp.        0.1571 Ry
        Total length         46.3494 bohr
 

     total cpu time spent up to now is     6775.3 secs

     total energy              =   -3345.19893743 Ry
     estimated scf accuracy    <       0.23173652 Ry

     total magnetization       =     0.42 Bohr mag/cell
     absolute magnetization    =     0.47 Bohr mag/cell

     iteration # 45     ecut=    36.75 Ry     beta= 0.05
     Davidson diagonalization with overlap
     ethr =  2.54E-05,  avg # of iterations =  1.1

     negative rho (up, down):  1.018E-02 1.021E-02
 
     Adding external electric field

     Computed dipole along edir(3) : 
        Dipole               -0.9161 Ry au,         -2.3286 Debye
        Dipole field         -0.0017 Ry au, 
 
        Potential amp.        0.1603 Ry
        Total length         46.3494 bohr
 
 
     Adding external electric field

     Computed dipole along edir(3) : 
        Dipole               -0.9161 Ry au,         -2.3286 Debye
        Dipole field         -0.0017 Ry au, 
 
        Potential amp.        0.1603 Ry
        Total length         46.3494 bohr
 

     total cpu time spent up to now is     6842.7 secs

     total energy              =   -3345.19974124 Ry
     estimated scf accuracy    <       0.27217861 Ry

     total magnetization       =     0.44 Bohr mag/cell
     absolute magnetization    =     0.49 Bohr mag/cell

     iteration # 46     ecut=    36.75 Ry     beta= 0.05
     Davidson diagonalization with overlap
     ethr =  2.54E-05,  avg # of iterations =  1.6

     negative rho (up, down):  1.019E-02 1.025E-02
 
     Adding external electric field

     Computed dipole along edir(3) : 
        Dipole               -0.8292 Ry au,         -2.1077 Debye
        Dipole field         -0.0016 Ry au, 
 
        Potential amp.        0.1451 Ry
        Total length         46.3494 bohr
 
 
     Adding external electric field

     Computed dipole along edir(3) : 
        Dipole               -0.8292 Ry au,         -2.1077 Debye
        Dipole field         -0.0016 Ry au, 
 
        Potential amp.        0.1451 Ry
        Total length         46.3494 bohr
 

     total cpu time spent up to now is     6912.2 secs

     total energy              =   -3345.19348623 Ry
     estimated scf accuracy    <       0.55255257 Ry

     total magnetization       =     0.39 Bohr mag/cell
     absolute magnetization    =     0.43 Bohr mag/cell

     iteration # 47     ecut=    36.75 Ry     beta= 0.05
     Davidson diagonalization with overlap
     c_bands:  1 eigenvalues not converged
     c_bands:  1 eigenvalues not converged
     ethr =  2.54E-05,  avg # of iterations =  5.5

     negative rho (up, down):  1.015E-02 1.024E-02
 
     Adding external electric field

     Computed dipole along edir(3) : 
        Dipole               -0.7622 Ry au,         -1.9374 Debye
        Dipole field         -0.0014 Ry au, 
 
        Potential amp.        0.1333 Ry
        Total length         46.3494 bohr
 
 
     Adding external electric field

     Computed dipole along edir(3) : 
        Dipole               -0.7622 Ry au,         -1.9374 Debye
        Dipole field         -0.0014 Ry au, 
 
        Potential amp.        0.1333 Ry
        Total length         46.3494 bohr
 

     total cpu time spent up to now is     6995.0 secs

     total energy              =   -3345.19997669 Ry
     estimated scf accuracy    <       0.11986261 Ry

     total magnetization       =     0.58 Bohr mag/cell
     absolute magnetization    =     0.60 Bohr mag/cell

     iteration # 48     ecut=    36.75 Ry     beta= 0.05
     Davidson diagonalization with overlap
     ethr =  2.54E-05,  avg # of iterations =  2.6

     negative rho (up, down):  1.012E-02 1.021E-02
 
     Adding external electric field

     Computed dipole along edir(3) : 
        Dipole               -0.7608 Ry au,         -1.9337 Debye
        Dipole field         -0.0014 Ry au, 
 
        Potential amp.        0.1331 Ry
        Total length         46.3494 bohr
 
 
     Adding external electric field

     Computed dipole along edir(3) : 
        Dipole               -0.7608 Ry au,         -1.9337 Debye
        Dipole field         -0.0014 Ry au, 
 
        Potential amp.        0.1331 Ry
        Total length         46.3494 bohr
 

     total cpu time spent up to now is     7101.0 secs

     total energy              =   -3345.19543919 Ry
     estimated scf accuracy    <       0.12766349 Ry

     total magnetization       =     1.07 Bohr mag/cell
     absolute magnetization    =     1.08 Bohr mag/cell

     iteration # 49     ecut=    36.75 Ry     beta= 0.05
     Davidson diagonalization with overlap
     ethr =  2.54E-05,  avg # of iterations =  3.8

     negative rho (up, down):  1.008E-02 1.018E-02
 
     Adding external electric field

     Computed dipole along edir(3) : 
        Dipole               -0.7039 Ry au,         -1.7892 Debye
        Dipole field         -0.0013 Ry au, 
 
        Potential amp.        0.1231 Ry
        Total length         46.3494 bohr
 
 
     Adding external electric field

     Computed dipole along edir(3) : 
        Dipole               -0.7039 Ry au,         -1.7892 Debye
        Dipole field         -0.0013 Ry au, 
 
        Potential amp.        0.1231 Ry
        Total length         46.3494 bohr
 

     total cpu time spent up to now is     7172.3 secs

     total energy              =   -3345.19797954 Ry
     estimated scf accuracy    <       0.17752370 Ry

     total magnetization       =     0.34 Bohr mag/cell
     absolute magnetization    =     0.43 Bohr mag/cell

     iteration # 50     ecut=    36.75 Ry     beta= 0.05
     Davidson diagonalization with overlap
     ethr =  2.54E-05,  avg # of iterations =  2.3

     negative rho (up, down):  1.007E-02 1.017E-02
 
     Adding external electric field

     Computed dipole along edir(3) : 
        Dipole               -0.6610 Ry au,         -1.6802 Debye
        Dipole field         -0.0012 Ry au, 
 
        Potential amp.        0.1156 Ry
        Total length         46.3494 bohr
 
 
     Adding external electric field

     Computed dipole along edir(3) : 
        Dipole               -0.6610 Ry au,         -1.6802 Debye
        Dipole field         -0.0012 Ry au, 
 
        Potential amp.        0.1156 Ry
        Total length         46.3494 bohr
 

     total cpu time spent up to now is     7246.9 secs

     total energy              =   -3345.19889273 Ry
     estimated scf accuracy    <       0.04397908 Ry

     total magnetization       =     0.66 Bohr mag/cell
     absolute magnetization    =     0.73 Bohr mag/cell

     iteration # 51     ecut=    36.75 Ry     beta= 0.05
     Davidson diagonalization with overlap
     c_bands:  1 eigenvalues not converged
     c_bands:  2 eigenvalues not converged
     c_bands:  1 eigenvalues not converged
     c_bands:  1 eigenvalues not converged
     c_bands:  3 eigenvalues not converged
     ethr =  1.12E-05,  avg # of iterations = 11.1

     negative rho (up, down):  1.009E-02 1.019E-02
 
     Adding external electric field

     Computed dipole along edir(3) : 
        Dipole               -0.6444 Ry au,         -1.6379 Debye
        Dipole field         -0.0012 Ry au, 
 
        Potential amp.        0.1127 Ry
        Total length         46.3494 bohr
 
 
     Adding external electric field

     Computed dipole along edir(3) : 
        Dipole               -0.6444 Ry au,         -1.6379 Debye
        Dipole field         -0.0012 Ry au, 
 
        Potential amp.        0.1127 Ry
        Total length         46.3494 bohr
 

     total cpu time spent up to now is     7373.6 secs

     total energy              =   -3345.19870936 Ry
     estimated scf accuracy    <       0.01347701 Ry

     total magnetization       =     0.81 Bohr mag/cell
     absolute magnetization    =     0.88 Bohr mag/cell

     iteration # 52     ecut=    36.75 Ry     beta= 0.05
     Davidson diagonalization with overlap
     c_bands:  1 eigenvalues not converged
     c_bands:  2 eigenvalues not converged
     c_bands:  1 eigenvalues not converged
     c_bands:  1 eigenvalues not converged
     c_bands:  2 eigenvalues not converged
     c_bands:  1 eigenvalues not converged
     c_bands:  1 eigenvalues not converged
     c_bands:  1 eigenvalues not converged
     ethr =  3.42E-06,  avg # of iterations = 14.6

     negative rho (up, down):  1.008E-02 1.019E-02
 
     Adding external electric field

     Computed dipole along edir(3) : 
        Dipole               -0.6201 Ry au,         -1.5762 Debye
        Dipole field         -0.0012 Ry au, 
 
        Potential amp.        0.1085 Ry
        Total length         46.3494 bohr
 
 
     Adding external electric field

     Computed dipole along edir(3) : 
        Dipole               -0.6201 Ry au,         -1.5762 Debye
        Dipole field         -0.0012 Ry au, 
 
        Potential amp.        0.1085 Ry
        Total length         46.3494 bohr
 

     total cpu time spent up to now is     7508.4 secs

     total energy              =   -3345.19941358 Ry
     estimated scf accuracy    <       0.01963262 Ry

     total magnetization       =     0.80 Bohr mag/cell
     absolute magnetization    =     0.87 Bohr mag/cell

     iteration # 53     ecut=    36.75 Ry     beta= 0.05
     Davidson diagonalization with overlap
     c_bands:  1 eigenvalues not converged
     c_bands:  2 eigenvalues not converged
     ethr =  3.42E-06,  avg # of iterations =  5.3

     negative rho (up, down):  1.006E-02 1.019E-02
 
     Adding external electric field

     Computed dipole along edir(3) : 
        Dipole               -0.6019 Ry au,         -1.5299 Debye
        Dipole field         -0.0011 Ry au, 
 
        Potential amp.        0.1053 Ry
        Total length         46.3494 bohr
 
 
     Adding external electric field

     Computed dipole along edir(3) : 
        Dipole               -0.6019 Ry au,         -1.5299 Debye
        Dipole field         -0.0011 Ry au, 
 
        Potential amp.        0.1053 Ry
        Total length         46.3494 bohr
 

     total cpu time spent up to now is     7596.8 secs

     total energy              =   -3345.20021848 Ry
     estimated scf accuracy    <       0.00632967 Ry

     total magnetization       =     0.93 Bohr mag/cell
     absolute magnetization    =     1.00 Bohr mag/cell

     iteration # 54     ecut=    36.75 Ry     beta= 0.05
     Davidson diagonalization with overlap
     c_bands:  1 eigenvalues not converged
     c_bands:  2 eigenvalues not converged
     c_bands:  1 eigenvalues not converged
     c_bands:  1 eigenvalues not converged
     ethr =  1.61E-06,  avg # of iterations = 10.4

     negative rho (up, down):  1.005E-02 1.018E-02
 
     Adding external electric field

     Computed dipole along edir(3) : 
        Dipole               -0.6019 Ry au,         -1.5300 Debye
        Dipole field         -0.0011 Ry au, 
 
        Potential amp.        0.1053 Ry
        Total length         46.3494 bohr
 
 
     Adding external electric field

     Computed dipole along edir(3) : 
        Dipole               -0.6019 Ry au,         -1.5300 Debye
        Dipole field         -0.0011 Ry au, 
 
        Potential amp.        0.1053 Ry
        Total length         46.3494 bohr
 

     total cpu time spent up to now is     7796.4 secs

     total energy              =   -3345.20033712 Ry
     estimated scf accuracy    <       0.00940853 Ry

     total magnetization       =     0.97 Bohr mag/cell
     absolute magnetization    =     1.05 Bohr mag/cell

     iteration # 55     ecut=    36.75 Ry     beta= 0.05
     Davidson diagonalization with overlap
     c_bands:  1 eigenvalues not converged
     ethr =  1.61E-06,  avg # of iterations =  2.8

     negative rho (up, down):  1.007E-02 1.025E-02
 
     Adding external electric field

     Computed dipole along edir(3) : 
        Dipole               -0.5700 Ry au,         -1.4489 Debye
        Dipole field         -0.0011 Ry au, 
 
        Potential amp.        0.0997 Ry
        Total length         46.3494 bohr
 
 
     Adding external electric field

     Computed dipole along edir(3) : 
        Dipole               -0.5700 Ry au,         -1.4489 Debye
        Dipole field         -0.0011 Ry au, 
 
        Potential amp.        0.0997 Ry
        Total length         46.3494 bohr
 

     total cpu time spent up to now is     7863.4 secs

     total energy              =   -3345.20174879 Ry
     estimated scf accuracy    <       0.00722605 Ry

     total magnetization       =     0.98 Bohr mag/cell
     absolute magnetization    =     1.06 Bohr mag/cell

     iteration # 56     ecut=    36.75 Ry     beta= 0.05
     Davidson diagonalization with overlap
     c_bands:  1 eigenvalues not converged
     c_bands:  1 eigenvalues not converged
     c_bands:  1 eigenvalues not converged
     c_bands:  2 eigenvalues not converged
     c_bands:  1 eigenvalues not converged
     c_bands:  1 eigenvalues not converged
     c_bands:  1 eigenvalues not converged
     ethr =  1.61E-06,  avg # of iterations = 14.4

     negative rho (up, down):  1.007E-02 1.026E-02
 
     Adding external electric field

     Computed dipole along edir(3) : 
        Dipole               -0.5535 Ry au,         -1.4067 Debye
        Dipole field         -0.0010 Ry au, 
 
        Potential amp.        0.0968 Ry
        Total length         46.3494 bohr
 
 
     Adding external electric field

     Computed dipole along edir(3) : 
        Dipole               -0.5535 Ry au,         -1.4067 Debye
        Dipole field         -0.0010 Ry au, 
 
        Potential amp.        0.0968 Ry
        Total length         46.3494 bohr
 

     total cpu time spent up to now is     7953.6 secs

     total energy              =   -3345.20229539 Ry
     estimated scf accuracy    <       0.00876605 Ry

     total magnetization       =     0.91 Bohr mag/cell
     absolute magnetization    =     1.05 Bohr mag/cell

     iteration # 57     ecut=    36.75 Ry     beta= 0.05
     Davidson diagonalization with overlap
     c_bands:  1 eigenvalues not converged
     c_bands:  2 eigenvalues not converged
     ethr =  1.61E-06,  avg # of iterations = 10.7

     negative rho (up, down):  1.000E-02 1.024E-02
 
     Adding external electric field

     Computed dipole along edir(3) : 
        Dipole               -0.5218 Ry au,         -1.3263 Debye
        Dipole field         -0.0010 Ry au, 
 
        Potential amp.        0.0913 Ry
        Total length         46.3494 bohr
 
 
     Adding external electric field

     Computed dipole along edir(3) : 
        Dipole               -0.5218 Ry au,         -1.3263 Debye
        Dipole field         -0.0010 Ry au, 
 
        Potential amp.        0.0913 Ry
        Total length         46.3494 bohr
 

     total cpu time spent up to now is     8033.0 secs

     total energy              =   -3345.20458185 Ry
     estimated scf accuracy    <       0.00291630 Ry

     total magnetization       =     1.00 Bohr mag/cell
     absolute magnetization    =     1.13 Bohr mag/cell

     iteration # 58     ecut=    36.75 Ry     beta= 0.05
     Davidson diagonalization with overlap
     c_bands:  1 eigenvalues not converged
     ethr =  7.40E-07,  avg # of iterations =  9.2

     negative rho (up, down):  1.002E-02 1.026E-02
 
     Adding external electric field

     Computed dipole along edir(3) : 
        Dipole               -0.5094 Ry au,         -1.2948 Debye
        Dipole field         -0.0010 Ry au, 
 
        Potential amp.        0.0891 Ry
        Total length         46.3494 bohr
 
 
     Adding external electric field

     Computed dipole along edir(3) : 
        Dipole               -0.5094 Ry au,         -1.2948 Debye
        Dipole field         -0.0010 Ry au, 
 
        Potential amp.        0.0891 Ry
        Total length         46.3494 bohr
 

     total cpu time spent up to now is     8149.3 secs

     total energy              =   -3345.20530686 Ry
     estimated scf accuracy    <       0.00196744 Ry

     total magnetization       =     1.03 Bohr mag/cell
     absolute magnetization    =     1.21 Bohr mag/cell

     iteration # 59     ecut=    36.75 Ry     beta= 0.05
     Davidson diagonalization with overlap
     c_bands:  1 eigenvalues not converged
     ethr =  4.99E-07,  avg # of iterations =  6.9

     negative rho (up, down):  1.037E-02 1.063E-02
 
     Adding external electric field

     Computed dipole along edir(3) : 
        Dipole               -0.4926 Ry au,         -1.2520 Debye
        Dipole field         -0.0009 Ry au, 
 
        Potential amp.        0.0862 Ry
        Total length         46.3494 bohr
 
 
     Adding external electric field

     Computed dipole along edir(3) : 
        Dipole               -0.4926 Ry au,         -1.2520 Debye
        Dipole field         -0.0009 Ry au, 
 
        Potential amp.        0.0862 Ry
        Total length         46.3494 bohr
 

     total cpu time spent up to now is     8223.8 secs

     total energy              =   -3345.20565304 Ry
     estimated scf accuracy    <       0.00403736 Ry

     total magnetization       =     1.07 Bohr mag/cell
     absolute magnetization    =     1.24 Bohr mag/cell

     iteration # 60     ecut=    36.75 Ry     beta= 0.05
     Davidson diagonalization with overlap
     ethr =  4.99E-07,  avg # of iterations =  6.6

     negative rho (up, down):  1.022E-02 1.048E-02
 
     Adding external electric field

     Computed dipole along edir(3) : 
        Dipole               -0.4915 Ry au,         -1.2493 Debye
        Dipole field         -0.0009 Ry au, 
 
        Potential amp.        0.0860 Ry
        Total length         46.3494 bohr
 
 
     Adding external electric field

     Computed dipole along edir(3) : 
        Dipole               -0.4915 Ry au,         -1.2493 Debye
        Dipole field         -0.0009 Ry au, 
 
        Potential amp.        0.0860 Ry
        Total length         46.3494 bohr
 

     total cpu time spent up to now is     8302.7 secs

     total energy              =   -3345.20626386 Ry
     estimated scf accuracy    <       0.00213299 Ry

     total magnetization       =     1.06 Bohr mag/cell
     absolute magnetization    =     1.27 Bohr mag/cell

     iteration # 61     ecut=    36.75 Ry     beta= 0.05
     Davidson diagonalization with overlap
     ethr =  4.99E-07,  avg # of iterations =  3.1

     negative rho (up, down):  1.008E-02 1.035E-02
 
     Adding external electric field

     Computed dipole along edir(3) : 
        Dipole               -0.4891 Ry au,         -1.2432 Debye
        Dipole field         -0.0009 Ry au, 
 
        Potential amp.        0.0856 Ry
        Total length         46.3494 bohr
 
 
     Adding external electric field

     Computed dipole along edir(3) : 
[...]
 
 
     Adding external electric field

     Computed dipole along edir(3) : 
        Dipole               -0.4415 Ry au,         -1.1221 Debye
        Dipole field         -0.0008 Ry au, 
 
        Potential amp.        0.0772 Ry
        Total length         46.3494 bohr
 

     total cpu time spent up to now is    40586.7 secs

     total energy              =   -3345.20839631 Ry
     estimated scf accuracy    <       0.00000240 Ry

     total magnetization       =     1.11 Bohr mag/cell
     absolute magnetization    =     1.77 Bohr mag/cell

     iteration #325     ecut=    36.75 Ry     beta= 0.05
     Davidson diagonalization with overlap
     c_bands:  1 eigenvalues not converged
     c_bands:  1 eigenvalues not converged
     c_bands:  1 eigenvalues not converged
     c_bands:  1 eigenvalues not converged
     c_bands:  1 eigenvalues not converged
     c_bands:  1 eigenvalues not converged
     c_bands:  2 eigenvalues not converged
     c_bands:  1 eigenvalues not converged
     ethr =  1.43E-10,  avg # of iterations = 17.6

     negative rho (up, down):  1.030E-02 1.059E-02
 
     Adding external electric field

     Computed dipole along edir(3) : 
        Dipole               -0.4389 Ry au,         -1.1157 Debye
        Dipole field         -0.0008 Ry au, 
 
        Potential amp.        0.0768 Ry
        Total length         46.3494 bohr
 
 
     Adding external electric field

     Computed dipole along edir(3) : 
        Dipole               -0.4389 Ry au,         -1.1157 Debye
        Dipole field         -0.0008 Ry au, 
 
        Potential amp.        0.0768 Ry
        Total length         46.3494 bohr
 

     total cpu time spent up to now is    40804.4 secs

     total energy              =   -3345.20839456 Ry
     estimated scf accuracy    <       0.00001826 Ry

     total magnetization       =     1.02 Bohr mag/cell
     absolute magnetization    =     1.69 Bohr mag/cell

     iteration #326     ecut=    36.75 Ry     beta= 0.05
     Davidson diagonalization with overlap
     c_bands:  1 eigenvalues not converged
     c_bands:  1 eigenvalues not converged
     c_bands:  2 eigenvalues not converged
     c_bands:  1 eigenvalues not converged
     c_bands:  1 eigenvalues not converged
     c_bands:  2 eigenvalues not converged
     c_bands:  1 eigenvalues not converged
     c_bands:  2 eigenvalues not converged
     c_bands:  1 eigenvalues not converged
     c_bands:  1 eigenvalues not converged
     c_bands:  1 eigenvalues not converged
     ethr =  1.43E-10,  avg # of iterations = 17.9

     negative rho (up, down):  1.029E-02 1.059E-02
 
     Adding external electric field

     Computed dipole along edir(3) : 
        Dipole               -0.4388 Ry au,         -1.1152 Debye
        Dipole field         -0.0008 Ry au, 
 
        Potential amp.        0.0768 Ry
        Total length         46.3494 bohr
 
 
     Adding external electric field

     Computed dipole along edir(3) : 
        Dipole               -0.4388 Ry au,         -1.1152 Debye
        Dipole field         -0.0008 Ry au, 
 
        Potential amp.        0.0768 Ry
        Total length         46.3494 bohr
 

     total cpu time spent up to now is    41014.0 secs

     total energy              =   -3345.20846894 Ry
     estimated scf accuracy    <       0.00000274 Ry

     total magnetization       =     1.13 Bohr mag/cell
     absolute magnetization    =     1.79 Bohr mag/cell

     iteration #327     ecut=    36.75 Ry     beta= 0.05
     Davidson diagonalization with overlap
     ethr =  1.43E-10,  avg # of iterations =  8.5

     negative rho (up, down):  1.030E-02 1.059E-02
 
     Adding external electric field

     Computed dipole along edir(3) : 
        Dipole               -0.4389 Ry au,         -1.1156 Debye
        Dipole field         -0.0008 Ry au, 
 
        Potential amp.        0.0768 Ry
        Total length         46.3494 bohr
 
 
     Adding external electric field

     Computed dipole along edir(3) : 
        Dipole               -0.4389 Ry au,         -1.1156 Debye
        Dipole field         -0.0008 Ry au, 
 
        Potential amp.        0.0768 Ry
        Total length         46.3494 bohr
 

     total cpu time spent up to now is    41121.8 secs

     total energy              =   -3345.20846849 Ry
     estimated scf accuracy    <       0.00000306 Ry

     total magnetization       =     1.14 Bohr mag/cell
     absolute magnetization    =     1.80 Bohr mag/cell

     iteration #328     ecut=    36.75 Ry     beta= 0.05
     Davidson diagonalization with overlap
     ethr =  1.43E-10,  avg # of iterations =  6.5

     negative rho (up, down):  1.032E-02 1.056E-02
 
     Adding external electric field

     Computed dipole along edir(3) : 
        Dipole               -0.4398 Ry au,         -1.1178 Debye
        Dipole field         -0.0008 Ry au, 
 
        Potential amp.        0.0769 Ry
        Total length         46.3494 bohr
 
 
     Adding external electric field

     Computed dipole along edir(3) : 
        Dipole               -0.4398 Ry au,         -1.1178 Debye
        Dipole field         -0.0008 Ry au, 
 
        Potential amp.        0.0769 Ry
        Total length         46.3494 bohr
 

     total cpu time spent up to now is    41208.7 secs

     total energy              =   -3345.20845427 Ry
     estimated scf accuracy    <       0.00000265 Ry

     total magnetization       =     1.13 Bohr mag/cell
     absolute magnetization    =     1.79 Bohr mag/cell

     iteration #329     ecut=    36.75 Ry     beta= 0.05
     Davidson diagonalization with overlap
     ethr =  1.43E-10,  avg # of iterations = 14.4

     negative rho (up, down):  1.033E-02 1.056E-02
 
     Adding external electric field

     Computed dipole along edir(3) : 
        Dipole               -0.4401 Ry au,         -1.1186 Debye
        Dipole field         -0.0008 Ry au, 
 
        Potential amp.        0.0770 Ry
        Total length         46.3494 bohr
 
 
     Adding external electric field

     Computed dipole along edir(3) : 
        Dipole               -0.4401 Ry au,         -1.1186 Debye
        Dipole field         -0.0008 Ry au, 
 
        Potential amp.        0.0770 Ry
        Total length         46.3494 bohr
 

     total cpu time spent up to now is    41378.3 secs

     total energy              =   -3345.20846219 Ry
     estimated scf accuracy    <       0.00000209 Ry

     total magnetization       =     1.09 Bohr mag/cell
     absolute magnetization    =     1.76 Bohr mag/cell

     iteration #330     ecut=    36.75 Ry     beta= 0.05
     Davidson diagonalization with overlap
     ethr =  1.43E-10,  avg # of iterations =  8.2

     negative rho (up, down):  1.034E-02 1.055E-02
 
     Adding external electric field

     Computed dipole along edir(3) : 
        Dipole               -0.4403 Ry au,         -1.1190 Debye
        Dipole field         -0.0008 Ry au, 
 
        Potential amp.        0.0770 Ry
        Total length         46.3494 bohr
 
 
     Adding external electric field

     Computed dipole along edir(3) : 
        Dipole               -0.4403 Ry au,         -1.1190 Debye
        Dipole field         -0.0008 Ry au, 
 
        Potential amp.        0.0770 Ry
        Total length         46.3494 bohr
 

     total cpu time spent up to now is    41492.7 secs

     total energy              =   -3345.20846169 Ry
     estimated scf accuracy    <       0.00000248 Ry

     total magnetization       =     1.08 Bohr mag/cell
     absolute magnetization    =     1.74 Bohr mag/cell

     iteration #331     ecut=    36.75 Ry     beta= 0.05
     Davidson diagonalization with overlap
     ethr =  1.43E-10,  avg # of iterations =  8.0

     negative rho (up, down):  1.033E-02 1.056E-02
 
     Adding external electric field

     Computed dipole along edir(3) : 
        Dipole               -0.4400 Ry au,         -1.1183 Debye
        Dipole field         -0.0008 Ry au, 
 
        Potential amp.        0.0770 Ry
        Total length         46.3494 bohr
 
 
     Adding external electric field

     Computed dipole along edir(3) : 
        Dipole               -0.4400 Ry au,         -1.1183 Debye
        Dipole field         -0.0008 Ry au, 
 
        Potential amp.        0.0770 Ry
        Total length         46.3494 bohr
 

     total cpu time spent up to now is    41593.5 secs

     total energy              =   -3345.20846258 Ry
     estimated scf accuracy    <       0.00000314 Ry

     total magnetization       =     1.07 Bohr mag/cell
     absolute magnetization    =     1.74 Bohr mag/cell

     iteration #332     ecut=    36.75 Ry     beta= 0.05
     Davidson diagonalization with overlap
     ethr =  1.43E-10,  avg # of iterations =  6.2

     negative rho (up, down):  1.032E-02 1.057E-02
 
     Adding external electric field

     Computed dipole along edir(3) : 
        Dipole               -0.4396 Ry au,         -1.1174 Debye
        Dipole field         -0.0008 Ry au, 
 
        Potential amp.        0.0769 Ry
        Total length         46.3494 bohr
 
 
     Adding external electric field

     Computed dipole along edir(3) : 
        Dipole               -0.4396 Ry au,         -1.1174 Debye
        Dipole field         -0.0008 Ry au, 
 
        Potential amp.        0.0769 Ry
        Total length         46.3494 bohr
 

     total cpu time spent up to now is    41684.8 secs

     total energy              =   -3345.20846304 Ry
     estimated scf accuracy    <       0.00000323 Ry

     total magnetization       =     1.08 Bohr mag/cell
     absolute magnetization    =     1.74 Bohr mag/cell

     iteration #333     ecut=    36.75 Ry     beta= 0.05
     Davidson diagonalization with overlap
     ethr =  1.43E-10,  avg # of iterations = 10.9

     negative rho (up, down):  1.031E-02 1.058E-02
 
     Adding external electric field

     Computed dipole along edir(3) : 
        Dipole               -0.4390 Ry au,         -1.1159 Debye
        Dipole field         -0.0008 Ry au, 
 
        Potential amp.        0.0768 Ry
        Total length         46.3494 bohr
 
 
     Adding external electric field

     Computed dipole along edir(3) : 
        Dipole               -0.4390 Ry au,         -1.1159 Debye
        Dipole field         -0.0008 Ry au, 
 
        Potential amp.        0.0768 Ry
        Total length         46.3494 bohr
 

     total cpu time spent up to now is    41815.8 secs

     total energy              =   -3345.20846210 Ry
     estimated scf accuracy    <       0.00000236 Ry

     total magnetization       =     1.09 Bohr mag/cell
     absolute magnetization    =     1.75 Bohr mag/cell

     iteration #334     ecut=    36.75 Ry     beta= 0.05
     Davidson diagonalization with overlap
     ethr =  1.43E-10,  avg # of iterations = 13.4

     negative rho (up, down):  1.031E-02 1.059E-02
 
     Adding external electric field

     Computed dipole along edir(3) : 
        Dipole               -0.4389 Ry au,         -1.1156 Debye
        Dipole field         -0.0008 Ry au, 
 
        Potential amp.        0.0768 Ry
        Total length         46.3494 bohr
 
 
     Adding external electric field

     Computed dipole along edir(3) : 
        Dipole               -0.4389 Ry au,         -1.1156 Debye
        Dipole field         -0.0008 Ry au, 
 
        Potential amp.        0.0768 Ry
        Total length         46.3494 bohr
 

     total cpu time spent up to now is    41971.2 secs

     total energy              =   -3345.20846782 Ry
     estimated scf accuracy    <       0.00000217 Ry

     total magnetization       =     1.12 Bohr mag/cell
     absolute magnetization    =     1.78 Bohr mag/cell

     iteration #335     ecut=    36.75 Ry     beta= 0.05
     Davidson diagonalization with overlap
     ethr =  1.43E-10,  avg # of iterations =  7.0

     negative rho (up, down):  1.030E-02 1.060E-02
 
     Adding external electric field

     Computed dipole along edir(3) : 
        Dipole               -0.4385 Ry au,         -1.1146 Debye
        Dipole field         -0.0008 Ry au, 
 
        Potential amp.        0.0767 Ry
        Total length         46.3494 bohr
 
 
     Adding external electric field

     Computed dipole along edir(3) : 
        Dipole               -0.4385 Ry au,         -1.1146 Debye
        Dipole field         -0.0008 Ry au, 
 
        Potential amp.        0.0767 Ry
        Total length         46.3494 bohr
 

     total cpu time spent up to now is    42066.5 secs

     total energy              =   -3345.20846781 Ry
     estimated scf accuracy    <       0.00000232 Ry

     total magnetization       =     1.13 Bohr mag/cell
     absolute magnetization    =     1.79 Bohr mag/cell

     iteration #336     ecut=    36.75 Ry     beta= 0.05
     Davidson diagonalization with overlap
     ethr =  1.43E-10,  avg # of iterations = 12.3

     negative rho (up, down):  1.032E-02 1.058E-02
 
     Adding external electric field

     Computed dipole along edir(3) : 
        Dipole               -0.4393 Ry au,         -1.1166 Debye
        Dipole field         -0.0008 Ry au, 
 
        Potential amp.        0.0768 Ry
        Total length         46.3494 bohr
 
 
     Adding external electric field

     Computed dipole along edir(3) : 
        Dipole               -0.4393 Ry au,         -1.1166 Debye
        Dipole field         -0.0008 Ry au, 
 
        Potential amp.        0.0768 Ry
        Total length         46.3494 bohr
 

     total cpu time spent up to now is    42205.9 secs

     total energy              =   -3345.20845875 Ry
     estimated scf accuracy    <       0.00000320 Ry

     total magnetization       =     1.15 Bohr mag/cell
     absolute magnetization    =     1.80 Bohr mag/cell

     iteration #337     ecut=    36.75 Ry     beta= 0.05
     Davidson diagonalization with overlap
     ethr =  1.43E-10,  avg # of iterations = 13.8

     negative rho (up, down):  1.032E-02 1.057E-02
 
     Adding external electric field

     Computed dipole along edir(3) : 
        Dipole               -0.4395 Ry au,         -1.1171 Debye
        Dipole field         -0.0008 Ry au, 
 
        Potential amp.        0.0769 Ry
        Total length         46.3494 bohr
 
 
     Adding external electric field

     Computed dipole along edir(3) : 
        Dipole               -0.4395 Ry au,         -1.1171 Debye
        Dipole field         -0.0008 Ry au, 
 
        Potential amp.        0.0769 Ry
        Total length         46.3494 bohr
 

     total cpu time spent up to now is    42361.7 secs

     total energy              =   -3345.20846450 Ry
     estimated scf accuracy    <       0.00000181 Ry

     total magnetization       =     1.11 Bohr mag/cell
     absolute magnetization    =     1.77 Bohr mag/cell

     iteration #338     ecut=    36.75 Ry     beta= 0.05
     Davidson diagonalization with overlap
     ethr =  1.43E-10,  avg # of iterations =  8.2

     negative rho (up, down):  1.031E-02 1.058E-02
 
     Adding external electric field

     Computed dipole along edir(3) : 
        Dipole               -0.4390 Ry au,         -1.1158 Debye
        Dipole field         -0.0008 Ry au, 
 
        Potential amp.        0.0768 Ry
        Total length         46.3494 bohr
 
 
     Adding external electric field

     Computed dipole along edir(3) : 
        Dipole               -0.4390 Ry au,         -1.1158 Debye
        Dipole field         -0.0008 Ry au, 
 
        Potential amp.        0.0768 Ry
        Total length         46.3494 bohr
 

     total cpu time spent up to now is    42484.8 secs

     total energy              =   -3345.20846449 Ry
     estimated scf accuracy    <       0.00000198 Ry

     total magnetization       =     1.10 Bohr mag/cell
     absolute magnetization    =     1.76 Bohr mag/cell

     iteration #339     ecut=    36.75 Ry     beta= 0.05
     Davidson diagonalization with overlap
     ethr =  1.43E-10,  avg # of iterations = 11.1

     negative rho (up, down):  1.033E-02 1.056E-02
 
     Adding external electric field

     Computed dipole along edir(3) : 
        Dipole               -0.4397 Ry au,         -1.1176 Debye
        Dipole field         -0.0008 Ry au, 
 
        Potential amp.        0.0769 Ry
        Total length         46.3494 bohr
 
 
     Adding external electric field

     Computed dipole along edir(3) : 
        Dipole               -0.4397 Ry au,         -1.1176 Debye
        Dipole field         -0.0008 Ry au, 
 
        Potential amp.        0.0769 Ry
        Total length         46.3494 bohr
 

     total cpu time spent up to now is    42631.1 secs

     total energy              =   -3345.20845783 Ry
     estimated scf accuracy    <       0.00000226 Ry

     total magnetization       =     1.12 Bohr mag/cell
     absolute magnetization    =     1.78 Bohr mag/cell

     iteration #340     ecut=    36.75 Ry     beta= 0.05
     Davidson diagonalization with overlap
     ethr =  1.43E-10,  avg # of iterations = 12.9

     negative rho (up, down):  1.031E-02 1.058E-02
 
     Adding external electric field

     Computed dipole along edir(3) : 
        Dipole               -0.4390 Ry au,         -1.1159 Debye
        Dipole field         -0.0008 Ry au, 
 
        Potential amp.        0.0768 Ry
        Total length         46.3494 bohr
 
 
     Adding external electric field

     Computed dipole along edir(3) : 
        Dipole               -0.4390 Ry au,         -1.1159 Debye
        Dipole field         -0.0008 Ry au, 
 
        Potential amp.        0.0768 Ry
        Total length         46.3494 bohr
 

     total cpu time spent up to now is    42789.7 secs

     total energy              =   -3345.20846103 Ry
     estimated scf accuracy    <       0.00000232 Ry

     total magnetization       =     1.09 Bohr mag/cell
     absolute magnetization    =     1.75 Bohr mag/cell

     iteration #341     ecut=    36.75 Ry     beta= 0.05
     Davidson diagonalization with overlap
     ethr =  1.43E-10,  avg # of iterations = 13.4

     negative rho (up, down):  1.033E-02 1.056E-02
 
     Adding external electric field

     Computed dipole along edir(3) : 
        Dipole               -0.4400 Ry au,         -1.1183 Debye
        Dipole field         -0.0008 Ry au, 
 
        Potential amp.        0.0770 Ry
        Total length         46.3494 bohr
 
 
     Adding external electric field

     Computed dipole along edir(3) : 
        Dipole               -0.4400 Ry au,         -1.1183 Debye
        Dipole field         -0.0008 Ry au, 
 
        Potential amp.        0.0770 Ry
        Total length         46.3494 bohr
 

     total cpu time spent up to now is    42947.6 secs

     total energy              =   -3345.20845455 Ry
     estimated scf accuracy    <       0.00000213 Ry

     total magnetization       =     1.12 Bohr mag/cell
     absolute magnetization    =     1.78 Bohr mag/cell

     iteration #342     ecut=    36.75 Ry     beta= 0.05
     Davidson diagonalization with overlap
     ethr =  1.43E-10,  avg # of iterations = 14.2

     negative rho (up, down):  1.032E-02 1.057E-02
 
     Adding external electric field

     Computed dipole along edir(3) : 
        Dipole               -0.4395 Ry au,         -1.1170 Debye
        Dipole field         -0.0008 Ry au, 
 
        Potential amp.        0.0769 Ry
        Total length         46.3494 bohr
 
 
     Adding external electric field

     Computed dipole along edir(3) : 
        Dipole               -0.4395 Ry au,         -1.1170 Debye
        Dipole field         -0.0008 Ry au, 
 
        Potential amp.        0.0769 Ry
        Total length         46.3494 bohr
 

     total cpu time spent up to now is    43110.4 secs

     total energy              =   -3345.20846335 Ry
     estimated scf accuracy    <       0.00000240 Ry

     total magnetization       =     1.08 Bohr mag/cell
     absolute magnetization    =     1.75 Bohr mag/cell

     iteration #343     ecut=    36.75 Ry     beta= 0.05
     Davidson diagonalization with overlap
