
     Program PWSCF v.6.7GPU starts on 16Feb2022 at 10:58: 5 

     This program is part of the open-source Quantum ESPRESSO suite
     for quantum simulation of materials; please cite
         "P. Giannozzi et al., J. Phys.:Condens. Matter 21 395502 (2009);
         "P. Giannozzi et al., J. Phys.:Condens. Matter 29 465901 (2017);
         "P. Giannozzi et al., J. Chem. Phys. 152 154105 (2020);
          URL http://www.quantum-espresso.org", 
     in publications or presentations arising from this work. More details at
     http://www.quantum-espresso.org/quote

     Parallel version (MPI), running on    16 processors

     MPI processes distributed on     1 nodes
     R & G space division:  proc/nbgrp/npool/nimage =      16
     Reading input from /storage/coda1/p-amedford6/0/bchen380/C22/N2_C/qe_3984376.sched-torque.pace.gatech.edu/pw.inp
Warning: card &CELL ignored
Warning: card   CELL_DYNAMICS='IPI', ignored
Warning: card / ignored

     Current dimensions of program PWSCF are:
     Max number of different atomic species (ntypx) = 10
     Max number of k-points (npk) =  40000
     Max angular momentum in pseudopotentials (lmaxx) =  3
     Message from routine cell_base_init:
     DEPRECATED: use true lattice parameter, not A to a.u. conversion factor
     file O.UPF: wavefunction(s)  2P renormalized
     file C.UPF: wavefunction(s)  2S 2P renormalized

     **************************************************************************
     Initializing libbeef V0.1.2 with the BEEF-vdW functional.
     Citation: Wellendorff et al., PRB 85, 235149 (2012).
     **************************************************************************


     IMPORTANT: XC functional enforced from input :
     Exchange-correlation= BEEF-VDW
                           (   1   4  43  14   2   0   0)
     Any further DFT definition will be discarded
     Please, verify this is what you really want


     Subspace diagonalization in iterative solution of the eigenvalue problem:
     one sub-group per band group will be used
     scalapack distributed-memory algorithm (size of sub-group:  4*  4 procs)

  @ DRIVER MODE: Connecting to 
 qe_1064200_3984376.sched-torque.pace.gatech.eduo6upunww_scratch
  using UNIX socket
  @ DRIVER MODE: Message from server: STATUS
  @ DRIVER MODE: Message from server: INIT
  @ DRIVER MODE: Receiving replica           0          -1
  @ DRIVER MODE: Receiving encoded integer          25
  @ DRIVER MODE:  SCF:  T  FORCE:  T  STRESS:  F  VC:  F  ENSEMBLE:  F
  @ DRIVER MODE:  SCF:  T  FORCE:  T  STRESS:  F  VC:  F  ENSEMBLE:  F
 
     Parallelization info
     --------------------
     sticks:   dense  smooth     PW     G-vecs:    dense   smooth      PW
     Min         256     102     28                49498    12526    1868
     Max         257     103     29                49510    12535    1881
     Sum        4097    1637    459               792059   200495   30031
 
     Using Slab Decomposition
 


     bravais-lattice index     =            0
     lattice parameter (alat)  =       1.8897  a.u.
     unit-cell volume          =    6658.9804 (a.u.)^3
     number of atoms/cell      =           50
     number of atomic types    =            4
     number of electrons       =       392.00
     number of Kohn-Sham states=          206
     kinetic-energy cutoff     =      36.7493  Ry
     charge density cutoff     =     367.4932  Ry
     scf convergence threshold =      7.3E-08
     mixing beta               =       0.0500
     number of iterations used =            8  plain     mixing
     Exchange-correlation= BEEF-VDW
                           (   1   4  43  14   2   0   0)

     celldm(1)=   1.889726  celldm(2)=   0.000000  celldm(3)=   0.000000
     celldm(4)=   0.000000  celldm(5)=   0.000000  celldm(6)=   0.000000

     crystal axes: (cart. coord. in units of alat)
               a(1) = (   6.579727   0.000000   0.000000 )  
               a(2) = (  -0.000775   5.961596   0.000000 )  
               a(3) = (   0.000000   0.000000  25.155947 )  

     reciprocal axes: (cart. coord. in units 2 pi/alat)
               b(1) = (  0.151982  0.000020  0.000000 )  
               b(2) = (  0.000000  0.167740  0.000000 )  
               b(3) = (  0.000000  0.000000  0.039752 )  


     PseudoPot. # 1 for Ti read from file:
     /storage/coda1/p-amedford6/0/shared/rich_project_chbe-medford/medford-share/data/pseudos_module/espresso/esp_pseudos_old/Ti.UPF
     MD5 check sum: 88a00a6731bd790ddea75d31a80cb452
     Pseudo is Ultrasoft + core correction, Zval = 12.0
     Generated by new atomic code, or converted to UPF format
     Using radial grid of  851 points,  6 beta functions with: 
                l(1) =   0
                l(2) =   0
                l(3) =   1
                l(4) =   1
                l(5) =   2
                l(6) =   2
     Q(r) pseudized with  6 coefficients,  rinner =    1.000   1.000   1.000
                                                       1.000   1.000

     PseudoPot. # 2 for O  read from file:
     /storage/coda1/p-amedford6/0/shared/rich_project_chbe-medford/medford-share/data/pseudos_module/espresso/esp_pseudos_old/O.UPF
     MD5 check sum: 0234752ac141de4415c5fc33072bef88
     Pseudo is Projector augmented-wave + core cor, Zval =  6.0
     Generated using "atomic" code by A. Dal Corso  v.5.0.99 svn rev. 10869
     Shape of augmentation charge: BESSEL
     Using radial grid of 1095 points,  4 beta functions with: 
                l(1) =   0
                l(2) =   0
                l(3) =   1
                l(4) =   1
     Q(r) pseudized with 0 coefficients 


     PseudoPot. # 3 for C  read from file:
     /storage/coda1/p-amedford6/0/shared/rich_project_chbe-medford/medford-share/data/pseudos_module/espresso/esp_pseudos_old/C.UPF
     MD5 check sum: 5d2aebdfa2cae82b50a7e79e9516da0f
     Pseudo is Projector augmented-wave + core cor, Zval =  4.0
     Generated using "atomic" code by A. Dal Corso  v.5.1
     Shape of augmentation charge: PSQ
     Using radial grid of 1073 points,  4 beta functions with: 
                l(1) =   0
                l(2) =   0
                l(3) =   1
                l(4) =   1
     Q(r) pseudized with 0 coefficients 


     PseudoPot. # 4 for N  read from file:
     /storage/coda1/p-amedford6/0/shared/rich_project_chbe-medford/medford-share/data/pseudos_module/espresso/esp_pseudos_old/N.UPF
     MD5 check sum: 16739722b17309cd8fe442a2ace49922
     Pseudo is Ultrasoft + core correction, Zval =  5.0
     Generated using "atomic" code by A. Dal Corso  v.5.1
     Using radial grid of 1085 points,  4 beta functions with: 
                l(1) =   0
                l(2) =   0
                l(3) =   1
                l(4) =   1
     Q(r) pseudized with 0 coefficients 


     atomic species   valence    mass     pseudopotential
        Ti1           12.00    47.86700     Ti( 1.00)
        O1             6.00    15.99900     O ( 1.00)
        C1             4.00    12.01100     C ( 1.00)
        N1             5.00    14.00700     N ( 1.00)

     Starting magnetic structure 
     atomic species   magnetization
        Ti1          0.000
        O1           0.000
        C1           0.000
        N1           0.000

     No symmetry found



   Cartesian axes

     site n.     atom                  positions (alat units)
         1           Ti1 tau(   1) = (   0.0004258   2.9801865   6.0000000  )
         2           Ti1 tau(   2) = (   3.2906075   1.4906267   6.0002472  )
         3           O1  tau(   3) = (   0.0006271   0.0005054   7.9858123  )
         4           O1  tau(   4) = (   3.2906025   0.0005020   7.3038282  )
         5           O1  tau(   5) = (   4.5942328   1.4918067   9.2879030  )
         6           O1  tau(   6) = (   1.9868534   1.4903216   9.2879459  )
         7           Ti1 tau(   7) = (   3.2905683   2.9818392   9.1597947  )
         8           Ti1 tau(   8) = (   0.0009689   1.5052867   9.3302970  )
         9           O1  tau(   9) = (   3.2763271   0.0015669  11.3214517  )
        10           O1  tau(  10) = (   0.0007044   0.0001637  10.5878211  )
        11           O1  tau(  11) = (   1.2623886   1.5095881  12.6454205  )
        12           O1  tau(  12) = (   5.2557420   1.5063077  12.6221316  )
        13           Ti1 tau(  13) = (   0.0707556   2.9890427  12.8487008  )
        14           Ti1 tau(  14) = (   3.3897684   1.4952120  12.4768557  )
        15           O1  tau(  15) = (   6.5605311   0.0077956  14.6121373  )
        16           O1  tau(  16) = (   3.2739376   5.9590762  13.8957961  )
        17           O1  tau(  17) = (   4.5097762   1.4710389  16.0497531  )
        18           O1  tau(  18) = (   2.0403275   1.4687306  16.0543229  )
        19           Ti1 tau(  19) = (   3.2770061   2.9711127  15.7042255  )
        20           Ti1 tau(  20) = (   0.0102077   1.3992453  16.1306624  )
        21           O1  tau(  21) = (   3.2904802   0.0005063   4.7018136  )
        22           O1  tau(  22) = (   6.5634076   5.9379635  17.2320895  )
        23           O1  tau(  23) = (   1.3043587   1.4918075   6.0039043  )
        24           O1  tau(  24) = (   5.2767064   1.4903225   6.0039473  )
        25           Ti1 tau(  25) = (   0.0000382   5.9609847   6.0000000  )
        26           Ti1 tau(  26) = (   3.2902200   4.4714249   6.0002472  )
        27           O1  tau(  27) = (   0.0002396   2.9813036   7.9858123  )
        28           O1  tau(  28) = (   3.2902150   2.9813002   7.3038282  )
        29           O1  tau(  29) = (   4.5938453   4.4726049   9.2879030  )
        30           O1  tau(  30) = (   1.9864658   4.4711199   9.2879459  )
        31           Ti1 tau(  31) = (   3.2909982   0.0016570   9.1583503  )
        32           Ti1 tau(  32) = (   0.0005865   4.4518293   9.3323505  )
        33           O1  tau(  33) = (   3.2745491   2.9828483  11.3189097  )
        34           O1  tau(  34) = (   0.0003571   2.9798178  10.5649370  )
        35           O1  tau(  35) = (   1.2627860   4.4614471  12.6460571  )
        36           O1  tau(  36) = (   5.2558931   4.4603043  12.6235392  )
        37           Ti1 tau(  37) = (   0.0633394   0.0080946  12.7777423  )
        38           Ti1 tau(  38) = (   3.3891395   4.4738801  12.4769460  )
        39           O1  tau(  39) = (   6.5778521   2.9861997  14.7047154  )
        40           O1  tau(  40) = (   3.2699765   2.9777991  13.8981438  )
        41           O1  tau(  41) = (   4.5093265   4.4524628  16.0486724  )
        42           O1  tau(  42) = (   2.0425649   4.4527673  16.0570755  )
        43           Ti1 tau(  43) = (   3.2974208   5.9506419  15.7073155  )
        44           Ti1 tau(  44) = (   0.0059163   4.4336003  16.1496515  )
        45           O1  tau(  45) = (   3.2900926   2.9813045   4.7018136  )
        46           C1  tau(  46) = (   6.5411429   2.9575422  17.5054814  )
        47           O1  tau(  47) = (   1.3039711   4.4726057   6.0039043  )
        48           O1  tau(  48) = (   5.2763189   4.4711207   6.0039473  )
        49           N1  tau(  49) = (   6.3938081   2.8642509  18.7700866  )
        50           N1  tau(  50) = (   6.2560745   2.7767776  19.9043091  )

     number of k points=    10  Fermi-Dirac smearing, width (Ry)=  0.0007
                       cart. coord. in units 2pi/alat
        k(    1) = (   0.0000000   0.0000000   0.0000000), wk =   0.0625000
        k(    2) = (   0.0000000   0.0419351   0.0000000), wk =   0.1250000
        k(    3) = (   0.0000000  -0.0838702   0.0000000), wk =   0.0625000
        k(    4) = (   0.0379955   0.0000049   0.0000000), wk =   0.1250000
        k(    5) = (   0.0379955   0.0419400   0.0000000), wk =   0.1250000
        k(    6) = (   0.0379955  -0.0838652   0.0000000), wk =   0.1250000
        k(    7) = (   0.0379955  -0.0419301   0.0000000), wk =   0.1250000
        k(    8) = (  -0.0759910  -0.0000099   0.0000000), wk =   0.0625000
        k(    9) = (  -0.0759910   0.0419252   0.0000000), wk =   0.1250000
        k(   10) = (  -0.0759910  -0.0838800   0.0000000), wk =   0.0625000

     Dense  grid:   792059 G-vectors     FFT dimensions: (  75,  72, 300)

     Smooth grid:   200495 G-vectors     FFT dimensions: (  48,  45, 192)

     Estimated max dynamical RAM per process >     383.95 MB

     Estimated total dynamical RAM >       6.00 GB

     Check: negative core charge=   -0.000008
     Generating pointlists ...
     new r_m :   0.7423 (alat units)  1.4028 (a.u.) for type    1
     new r_m :   0.7423 (alat units)  1.4028 (a.u.) for type    2
     new r_m :   0.5266 (alat units)  0.9951 (a.u.) for type    3
     new r_m :   0.4727 (alat units)  0.8932 (a.u.) for type    4

     Initial potential from superposition of free atoms

     starting charge  375.99919, renormalised to  392.00000

     negative rho (up, down):  1.206E-02 1.206E-02


     %%%%%%%%%%%%%%%%%%%%%%%%%%%%%%%%%%%%%%%%%%%%%%%%%%%%%%%%%%%%%%%%%%%%%%%%
     %                                                                      %
     % You are using vdW-DF, which was implemented by the Thonhauser group. %
     % Please cite the following two papers that made this development      %
     % possible and the two reviews that describe the various versions:     %
     %                                                                      %
     %   T. Thonhauser et al., PRL 115, 136402 (2015).                      %
     %   T. Thonhauser et al., PRB 76, 125112 (2007).                       %
     %   K. Berland et al., Rep. Prog. Phys. 78, 066501 (2015).             %
     %   D.C. Langreth et al., J. Phys.: Condens. Matter 21, 084203 (2009). %
     %                                                                      %
     %                                                                      %
     % If you are calculating the stress with vdW-DF, please also cite:     %
     %                                                                      %
     %   R. Sabatini et al., J. Phys.: Condens. Matter 24, 424209 (2012).   %
     %                                                                      %
     %%%%%%%%%%%%%%%%%%%%%%%%%%%%%%%%%%%%%%%%%%%%%%%%%%%%%%%%%%%%%%%%%%%%%%%%


 
     Adding external electric field

     Computed dipole along edir(3) : 
        Dipole               -6.1855 Ry au,        -15.7220 Debye
        Dipole field         -0.0117 Ry au, 
 
        Potential amp.        1.0821 Ry
        Total length         46.3494 bohr
 
 
     Adding external electric field

     Computed dipole along edir(3) : 
        Dipole               -6.1855 Ry au,        -15.7220 Debye
        Dipole field         -0.0117 Ry au, 
 
        Potential amp.        1.0821 Ry
        Total length         46.3494 bohr
 
     Starting wfcs are  296 randomized atomic wfcs
     Checking if some PAW data can be deallocated... 
  @ DRIVER MODE: Message from server: STATUS
  @ DRIVER MODE: Message from server: POSDATA
  @ DRIVER MODE: Reading and sharing cell 
  @ DRIVER MODE: Reading and sharing positions 
  @ DRIVER MODE: Received positions 

     total cpu time spent up to now is       18.1 secs

     Self-consistent Calculation

     iteration #  1     ecut=    36.75 Ry     beta= 0.05
     Davidson diagonalization with overlap
     ethr =  1.00E-02,  avg # of iterations =  2.2

     negative rho (up, down):  1.158E-02 1.158E-02
 
     Adding external electric field

     Computed dipole along edir(3) : 
        Dipole               24.3005 Ry au,         61.7658 Debye
        Dipole field          0.0459 Ry au, 
 
        Potential amp.       -4.2510 Ry
        Total length         46.3494 bohr
 
 
     Adding external electric field

     Computed dipole along edir(3) : 
        Dipole               24.3005 Ry au,         61.7658 Debye
        Dipole field          0.0459 Ry au, 
 
        Potential amp.       -4.2510 Ry
        Total length         46.3494 bohr
 

     total cpu time spent up to now is       39.8 secs

     total energy              =   -3170.58454696 Ry
     estimated scf accuracy    <    1451.16430912 Ry

     total magnetization       =    -0.00 Bohr mag/cell
     absolute magnetization    =     0.10 Bohr mag/cell

     iteration #  2     ecut=    36.75 Ry     beta= 0.05
     Davidson diagonalization with overlap
     ethr =  1.00E-02,  avg # of iterations = 14.2

     negative rho (up, down):  1.110E-02 1.110E-02
 
     Adding external electric field

     Computed dipole along edir(3) : 
        Dipole               -2.6824 Ry au,         -6.8180 Debye
        Dipole field         -0.0051 Ry au, 
 
        Potential amp.        0.4692 Ry
        Total length         46.3494 bohr
 
 
     Adding external electric field

     Computed dipole along edir(3) : 
        Dipole               -2.6824 Ry au,         -6.8180 Debye
        Dipole field         -0.0051 Ry au, 
 
        Potential amp.        0.4692 Ry
        Total length         46.3494 bohr
 

     total cpu time spent up to now is      110.9 secs

     total energy              =   -3038.60988265 Ry
     estimated scf accuracy    <   33706.53513510 Ry

     total magnetization       =     0.09 Bohr mag/cell
     absolute magnetization    =     0.81 Bohr mag/cell

     iteration #  3     ecut=    36.75 Ry     beta= 0.05
     Davidson diagonalization with overlap
     ethr =  1.00E-02,  avg # of iterations = 13.2

     negative rho (up, down):  1.100E-02 1.100E-02
 
     Adding external electric field

     Computed dipole along edir(3) : 
        Dipole               -3.5682 Ry au,         -9.0696 Debye
        Dipole field         -0.0067 Ry au, 
 
        Potential amp.        0.6242 Ry
        Total length         46.3494 bohr
 
 
     Adding external electric field

     Computed dipole along edir(3) : 
        Dipole               -3.5682 Ry au,         -9.0696 Debye
        Dipole field         -0.0067 Ry au, 
 
        Potential amp.        0.6242 Ry
        Total length         46.3494 bohr
 

     total cpu time spent up to now is      171.7 secs

     total energy              =   -3289.08001186 Ry
     estimated scf accuracy    <    1220.90868293 Ry

     total magnetization       =    -0.57 Bohr mag/cell
     absolute magnetization    =     0.71 Bohr mag/cell

     iteration #  4     ecut=    36.75 Ry     beta= 0.05
     Davidson diagonalization with overlap
     c_bands:  1 eigenvalues not converged
     c_bands:  4 eigenvalues not converged
     ethr =  1.00E-02,  avg # of iterations =  7.7

     negative rho (up, down):  1.101E-02 1.101E-02
 
     Adding external electric field

     Computed dipole along edir(3) : 
        Dipole               -4.2059 Ry au,        -10.6903 Debye
        Dipole field         -0.0079 Ry au, 
 
        Potential amp.        0.7358 Ry
        Total length         46.3494 bohr
 
 
     Adding external electric field

     Computed dipole along edir(3) : 
        Dipole               -4.2059 Ry au,        -10.6903 Debye
        Dipole field         -0.0079 Ry au, 
 
        Potential amp.        0.7358 Ry
        Total length         46.3494 bohr
 

     total cpu time spent up to now is      194.9 secs

     total energy              =   -3288.50117508 Ry
     estimated scf accuracy    <     624.33198717 Ry

     total magnetization       =     1.82 Bohr mag/cell
     absolute magnetization    =     2.36 Bohr mag/cell

     iteration #  5     ecut=    36.75 Ry     beta= 0.05
     Davidson diagonalization with overlap
     ethr =  1.00E-02,  avg # of iterations = 10.3

     negative rho (up, down):  1.120E-02 1.120E-02
 
     Adding external electric field

     Computed dipole along edir(3) : 
        Dipole               -3.9778 Ry au,        -10.1104 Debye
        Dipole field         -0.0075 Ry au, 
 
        Potential amp.        0.6958 Ry
        Total length         46.3494 bohr
 
 
     Adding external electric field

     Computed dipole along edir(3) : 
        Dipole               -3.9778 Ry au,        -10.1104 Debye
        Dipole field         -0.0075 Ry au, 
 
        Potential amp.        0.6958 Ry
        Total length         46.3494 bohr
 

     total cpu time spent up to now is      223.0 secs

     total energy              =   -3303.03242968 Ry
     estimated scf accuracy    <      12.26825999 Ry

     total magnetization       =    -1.06 Bohr mag/cell
     absolute magnetization    =     1.32 Bohr mag/cell

     iteration #  6     ecut=    36.75 Ry     beta= 0.05
     Davidson diagonalization with overlap
     ethr =  3.13E-03,  avg # of iterations =  2.9

     negative rho (up, down):  1.206E-02 1.205E-02
 
     Adding external electric field

     Computed dipole along edir(3) : 
        Dipole               -2.6889 Ry au,         -6.8346 Debye
        Dipole field         -0.0051 Ry au, 
 
        Potential amp.        0.4704 Ry
        Total length         46.3494 bohr
 
 
     Adding external electric field

     Computed dipole along edir(3) : 
        Dipole               -2.6889 Ry au,         -6.8346 Debye
        Dipole field         -0.0051 Ry au, 
 
        Potential amp.        0.4704 Ry
        Total length         46.3494 bohr
 

     total cpu time spent up to now is      243.5 secs

     total energy              =   -3301.43642480 Ry
     estimated scf accuracy    <      10.61436841 Ry

     total magnetization       =    -0.12 Bohr mag/cell
     absolute magnetization    =     0.23 Bohr mag/cell

     iteration #  7     ecut=    36.75 Ry     beta= 0.05
     Davidson diagonalization with overlap
     ethr =  2.71E-03,  avg # of iterations =  2.2

     negative rho (up, down):  1.272E-02 1.270E-02
 
     Adding external electric field

     Computed dipole along edir(3) : 
        Dipole               -1.4184 Ry au,         -3.6052 Debye
        Dipole field         -0.0027 Ry au, 
 
        Potential amp.        0.2481 Ry
        Total length         46.3494 bohr
 
 
     Adding external electric field

     Computed dipole along edir(3) : 
        Dipole               -1.4184 Ry au,         -3.6052 Debye
        Dipole field         -0.0027 Ry au, 
 
        Potential amp.        0.2481 Ry
        Total length         46.3494 bohr
 

     total cpu time spent up to now is      262.5 secs

     total energy              =   -3300.92797604 Ry
     estimated scf accuracy    <       7.36859696 Ry

     total magnetization       =    -0.12 Bohr mag/cell
     absolute magnetization    =     0.28 Bohr mag/cell

     iteration #  8     ecut=    36.75 Ry     beta= 0.05
     Davidson diagonalization with overlap
     ethr =  1.88E-03,  avg # of iterations =  4.5

     negative rho (up, down):  1.280E-02 1.279E-02
 
     Adding external electric field

     Computed dipole along edir(3) : 
        Dipole               -1.3896 Ry au,         -3.5319 Debye
        Dipole field         -0.0026 Ry au, 
 
        Potential amp.        0.2431 Ry
        Total length         46.3494 bohr
 
 
     Adding external electric field

     Computed dipole along edir(3) : 
        Dipole               -1.3896 Ry au,         -3.5319 Debye
        Dipole field         -0.0026 Ry au, 
 
        Potential amp.        0.2431 Ry
        Total length         46.3494 bohr
 

     total cpu time spent up to now is      284.1 secs

     total energy              =   -3303.13111070 Ry
     estimated scf accuracy    <     167.37914985 Ry

     total magnetization       =    -0.03 Bohr mag/cell
     absolute magnetization    =     0.30 Bohr mag/cell

     iteration #  9     ecut=    36.75 Ry     beta= 0.05
     Davidson diagonalization with overlap
     ethr =  1.88E-03,  avg # of iterations =  1.4

     negative rho (up, down):  1.207E-02 1.206E-02
 
     Adding external electric field

     Computed dipole along edir(3) : 
        Dipole               -2.6762 Ry au,         -6.8021 Debye
        Dipole field         -0.0051 Ry au, 
 
        Potential amp.        0.4682 Ry
        Total length         46.3494 bohr
 
 
     Adding external electric field

     Computed dipole along edir(3) : 
        Dipole               -2.6762 Ry au,         -6.8021 Debye
        Dipole field         -0.0051 Ry au, 
 
        Potential amp.        0.4682 Ry
        Total length         46.3494 bohr
 

     total cpu time spent up to now is      301.8 secs

     total energy              =   -3298.55299414 Ry
     estimated scf accuracy    <     168.09685419 Ry

     total magnetization       =    -0.04 Bohr mag/cell
     absolute magnetization    =     0.28 Bohr mag/cell

     iteration # 10     ecut=    36.75 Ry     beta= 0.05
     Davidson diagonalization with overlap
     ethr =  1.88E-03,  avg # of iterations =  4.8

     negative rho (up, down):  1.259E-02 1.257E-02
 
     Adding external electric field

     Computed dipole along edir(3) : 
        Dipole               -1.6559 Ry au,         -4.2090 Debye
        Dipole field         -0.0031 Ry au, 
 
        Potential amp.        0.2897 Ry
        Total length         46.3494 bohr
 
 
     Adding external electric field

     Computed dipole along edir(3) : 
        Dipole               -1.6559 Ry au,         -4.2090 Debye
        Dipole field         -0.0031 Ry au, 
 
        Potential amp.        0.2897 Ry
        Total length         46.3494 bohr
 

     total cpu time spent up to now is      323.5 secs

     total energy              =   -3301.32831627 Ry
     estimated scf accuracy    <       2.12890787 Ry

     total magnetization       =    -0.12 Bohr mag/cell
     absolute magnetization    =     0.24 Bohr mag/cell

     iteration # 11     ecut=    36.75 Ry     beta= 0.05
     Davidson diagonalization with overlap
     ethr =  5.43E-04,  avg # of iterations =  5.5

     negative rho (up, down):  1.234E-02 1.233E-02
 
     Adding external electric field

     Computed dipole along edir(3) : 
        Dipole               -1.9485 Ry au,         -4.9527 Debye
        Dipole field         -0.0037 Ry au, 
 
        Potential amp.        0.3409 Ry
        Total length         46.3494 bohr
 
 
     Adding external electric field

     Computed dipole along edir(3) : 
        Dipole               -1.9485 Ry au,         -4.9527 Debye
        Dipole field         -0.0037 Ry au, 
 
        Potential amp.        0.3409 Ry
        Total length         46.3494 bohr
 

     total cpu time spent up to now is      345.6 secs

     total energy              =   -3301.21966728 Ry
     estimated scf accuracy    <       8.93079635 Ry

     total magnetization       =    -0.04 Bohr mag/cell
     absolute magnetization    =     0.29 Bohr mag/cell

     iteration # 12     ecut=    36.75 Ry     beta= 0.05
     Davidson diagonalization with overlap
     ethr =  5.43E-04,  avg # of iterations =  4.0

     negative rho (up, down):  1.237E-02 1.238E-02
 
     Adding external electric field

     Computed dipole along edir(3) : 
        Dipole               -1.4318 Ry au,         -3.6393 Debye
        Dipole field         -0.0027 Ry au, 
 
        Potential amp.        0.2505 Ry
        Total length         46.3494 bohr
 
 
     Adding external electric field

     Computed dipole along edir(3) : 
        Dipole               -1.4318 Ry au,         -3.6393 Debye
        Dipole field         -0.0027 Ry au, 
 
        Potential amp.        0.2505 Ry
        Total length         46.3494 bohr
 

     total cpu time spent up to now is      365.6 secs

     total energy              =   -3301.37550494 Ry
     estimated scf accuracy    <       1.15751850 Ry

     total magnetization       =    -0.00 Bohr mag/cell
     absolute magnetization    =     0.14 Bohr mag/cell

     iteration # 13     ecut=    36.75 Ry     beta= 0.05
     Davidson diagonalization with overlap
     ethr =  2.95E-04,  avg # of iterations =  5.2

     negative rho (up, down):  1.238E-02 1.239E-02
 
     Adding external electric field

     Computed dipole along edir(3) : 
        Dipole               -1.1960 Ry au,         -3.0399 Debye
        Dipole field         -0.0023 Ry au, 
 
        Potential amp.        0.2092 Ry
        Total length         46.3494 bohr
 
 
     Adding external electric field

     Computed dipole along edir(3) : 
        Dipole               -1.1960 Ry au,         -3.0399 Debye
        Dipole field         -0.0023 Ry au, 
 
        Potential amp.        0.2092 Ry
        Total length         46.3494 bohr
 

     total cpu time spent up to now is      387.0 secs

     total energy              =   -3301.42760085 Ry
     estimated scf accuracy    <       0.88584058 Ry

     total magnetization       =    -0.00 Bohr mag/cell
     absolute magnetization    =     0.12 Bohr mag/cell

     iteration # 14     ecut=    36.75 Ry     beta= 0.05
     Davidson diagonalization with overlap
     ethr =  2.26E-04,  avg # of iterations =  3.0

     negative rho (up, down):  1.207E-02 1.210E-02
 
     Adding external electric field

     Computed dipole along edir(3) : 
        Dipole               -0.7951 Ry au,         -2.0208 Debye
        Dipole field         -0.0015 Ry au, 
 
        Potential amp.        0.1391 Ry
        Total length         46.3494 bohr
 
 
     Adding external electric field

     Computed dipole along edir(3) : 
        Dipole               -0.7951 Ry au,         -2.0208 Debye
        Dipole field         -0.0015 Ry au, 
 
        Potential amp.        0.1391 Ry
        Total length         46.3494 bohr
 

     total cpu time spent up to now is      406.3 secs

     total energy              =   -3301.26843343 Ry
     estimated scf accuracy    <       0.88558677 Ry

     total magnetization       =     0.00 Bohr mag/cell
     absolute magnetization    =     0.11 Bohr mag/cell

     iteration # 15     ecut=    36.75 Ry     beta= 0.05
     Davidson diagonalization with overlap
     ethr =  2.26E-04,  avg # of iterations =  8.4

     negative rho (up, down):  1.187E-02 1.189E-02
 
     Adding external electric field

     Computed dipole along edir(3) : 
        Dipole               -1.0199 Ry au,         -2.5924 Debye
        Dipole field         -0.0019 Ry au, 
 
        Potential amp.        0.1784 Ry
        Total length         46.3494 bohr
 
 
     Adding external electric field

     Computed dipole along edir(3) : 
        Dipole               -1.0199 Ry au,         -2.5924 Debye
        Dipole field         -0.0019 Ry au, 
 
        Potential amp.        0.1784 Ry
        Total length         46.3494 bohr
 

     total cpu time spent up to now is      431.8 secs

     total energy              =   -3301.27139049 Ry
     estimated scf accuracy    <       0.78644694 Ry

     total magnetization       =    -0.00 Bohr mag/cell
     absolute magnetization    =     0.08 Bohr mag/cell

     iteration # 16     ecut=    36.75 Ry     beta= 0.05
     Davidson diagonalization with overlap
     ethr =  2.01E-04,  avg # of iterations =  5.2

     negative rho (up, down):  1.172E-02 1.175E-02
 
     Adding external electric field

     Computed dipole along edir(3) : 
        Dipole               -0.5817 Ry au,         -1.4785 Debye
        Dipole field         -0.0011 Ry au, 
 
        Potential amp.        0.1018 Ry
        Total length         46.3494 bohr
 
 
     Adding external electric field

     Computed dipole along edir(3) : 
        Dipole               -0.5817 Ry au,         -1.4785 Debye
        Dipole field         -0.0011 Ry au, 
 
        Potential amp.        0.1018 Ry
        Total length         46.3494 bohr
 

     total cpu time spent up to now is      452.9 secs

     total energy              =   -3301.32311776 Ry
     estimated scf accuracy    <       0.27975158 Ry

     total magnetization       =     0.00 Bohr mag/cell
     absolute magnetization    =     0.06 Bohr mag/cell

     iteration # 17     ecut=    36.75 Ry     beta= 0.05
     Davidson diagonalization with overlap
     c_bands:  2 eigenvalues not converged
     c_bands:  1 eigenvalues not converged
     c_bands:  1 eigenvalues not converged
     c_bands:  1 eigenvalues not converged
     ethr =  7.14E-05,  avg # of iterations = 13.7

     negative rho (up, down):  1.149E-02 1.151E-02
 
     Adding external electric field

     Computed dipole along edir(3) : 
        Dipole               -0.2687 Ry au,         -0.6831 Debye
        Dipole field         -0.0005 Ry au, 
 
        Potential amp.        0.0470 Ry
        Total length         46.3494 bohr
 
 
     Adding external electric field

     Computed dipole along edir(3) : 
        Dipole               -0.2687 Ry au,         -0.6831 Debye
        Dipole field         -0.0005 Ry au, 
 
        Potential amp.        0.0470 Ry
        Total length         46.3494 bohr
 

     total cpu time spent up to now is      479.7 secs

     total energy              =   -3301.31033995 Ry
     estimated scf accuracy    <       0.29739942 Ry

     total magnetization       =     0.00 Bohr mag/cell
     absolute magnetization    =     0.05 Bohr mag/cell

     iteration # 18     ecut=    36.75 Ry     beta= 0.05
     Davidson diagonalization with overlap
     ethr =  7.14E-05,  avg # of iterations =  4.5

     negative rho (up, down):  1.126E-02 1.127E-02
 
     Adding external electric field

     Computed dipole along edir(3) : 
        Dipole               -0.0530 Ry au,         -0.1347 Debye
        Dipole field         -0.0001 Ry au, 
 
        Potential amp.        0.0093 Ry
        Total length         46.3494 bohr
 
 
     Adding external electric field

     Computed dipole along edir(3) : 
        Dipole               -0.0530 Ry au,         -0.1347 Debye
        Dipole field         -0.0001 Ry au, 
 
        Potential amp.        0.0093 Ry
        Total length         46.3494 bohr
 

     total cpu time spent up to now is      500.1 secs

     total energy              =   -3301.31070911 Ry
     estimated scf accuracy    <       0.21029433 Ry

     total magnetization       =    -0.00 Bohr mag/cell
     absolute magnetization    =     0.06 Bohr mag/cell

     iteration # 19     ecut=    36.75 Ry     beta= 0.05
     Davidson diagonalization with overlap
     c_bands:  2 eigenvalues not converged
     ethr =  5.36E-05,  avg # of iterations =  7.4

     negative rho (up, down):  1.118E-02 1.119E-02
 
     Adding external electric field

     Computed dipole along edir(3) : 
        Dipole               -0.0856 Ry au,         -0.2176 Debye
        Dipole field         -0.0002 Ry au, 
 
        Potential amp.        0.0150 Ry
        Total length         46.3494 bohr
 
 
     Adding external electric field

     Computed dipole along edir(3) : 
        Dipole               -0.0856 Ry au,         -0.2176 Debye
        Dipole field         -0.0002 Ry au, 
 
        Potential amp.        0.0150 Ry
        Total length         46.3494 bohr
 

     total cpu time spent up to now is      525.0 secs

     total energy              =   -3301.31332346 Ry
     estimated scf accuracy    <       0.25357141 Ry

     total magnetization       =    -0.00 Bohr mag/cell
     absolute magnetization    =     0.04 Bohr mag/cell

     iteration # 20     ecut=    36.75 Ry     beta= 0.05
     Davidson diagonalization with overlap
     ethr =  5.36E-05,  avg # of iterations =  4.9

     negative rho (up, down):  1.104E-02 1.106E-02
 
     Adding external electric field

     Computed dipole along edir(3) : 
        Dipole               -0.0942 Ry au,         -0.2393 Debye
        Dipole field         -0.0002 Ry au, 
 
        Potential amp.        0.0165 Ry
        Total length         46.3494 bohr
 
 
     Adding external electric field

     Computed dipole along edir(3) : 
        Dipole               -0.0942 Ry au,         -0.2393 Debye
        Dipole field         -0.0002 Ry au, 
 
        Potential amp.        0.0165 Ry
        Total length         46.3494 bohr
 

     total cpu time spent up to now is      545.8 secs

     total energy              =   -3301.31215465 Ry
     estimated scf accuracy    <       0.14793721 Ry

     total magnetization       =    -0.00 Bohr mag/cell
     absolute magnetization    =     0.04 Bohr mag/cell

     iteration # 21     ecut=    36.75 Ry     beta= 0.05
     Davidson diagonalization with overlap
     ethr =  3.77E-05,  avg # of iterations =  8.3

     negative rho (up, down):  1.099E-02 1.100E-02
 
     Adding external electric field

     Computed dipole along edir(3) : 
        Dipole               -0.4518 Ry au,         -1.1484 Debye
        Dipole field         -0.0009 Ry au, 
 
        Potential amp.        0.0790 Ry
        Total length         46.3494 bohr
 
 
     Adding external electric field

     Computed dipole along edir(3) : 
        Dipole               -0.4518 Ry au,         -1.1484 Debye
        Dipole field         -0.0009 Ry au, 
 
        Potential amp.        0.0790 Ry
        Total length         46.3494 bohr
 

     total cpu time spent up to now is      569.6 secs

     total energy              =   -3301.30412889 Ry
     estimated scf accuracy    <       0.08553430 Ry

     total magnetization       =     0.00 Bohr mag/cell
     absolute magnetization    =     0.03 Bohr mag/cell

     iteration # 22     ecut=    36.75 Ry     beta= 0.05
     Davidson diagonalization with overlap
     c_bands:  3 eigenvalues not converged
     c_bands:  3 eigenvalues not converged
     c_bands:  2 eigenvalues not converged
     c_bands:  3 eigenvalues not converged
     c_bands:  3 eigenvalues not converged
     c_bands:  1 eigenvalues not converged
     c_bands:  1 eigenvalues not converged
     c_bands:  2 eigenvalues not converged
     c_bands:  3 eigenvalues not converged
     c_bands:  1 eigenvalues not converged
     c_bands:  3 eigenvalues not converged
     c_bands:  2 eigenvalues not converged
     c_bands:  4 eigenvalues not converged
     c_bands:  1 eigenvalues not converged
     c_bands:  1 eigenvalues not converged
     ethr =  2.18E-05,  avg # of iterations = 19.6

     negative rho (up, down):  1.102E-02 1.103E-02
 
     Adding external electric field

     Computed dipole along edir(3) : 
        Dipole               -0.4161 Ry au,         -1.0575 Debye
        Dipole field         -0.0008 Ry au, 
 
        Potential amp.        0.0728 Ry
        Total length         46.3494 bohr
 
 
     Adding external electric field

     Computed dipole along edir(3) : 
        Dipole               -0.4161 Ry au,         -1.0575 Debye
        Dipole field         -0.0008 Ry au, 
 
        Potential amp.        0.0728 Ry
        Total length         46.3494 bohr
 

     total cpu time spent up to now is      605.8 secs

     total energy              =   -3301.30325927 Ry
     estimated scf accuracy    <       0.05098858 Ry

     total magnetization       =     0.00 Bohr mag/cell
     absolute magnetization    =     0.03 Bohr mag/cell

     iteration # 23     ecut=    36.75 Ry     beta= 0.05
     Davidson diagonalization with overlap
     c_bands:  2 eigenvalues not converged
     ethr =  1.30E-05,  avg # of iterations =  9.2

     negative rho (up, down):  1.099E-02 1.101E-02
 
     Adding external electric field

     Computed dipole along edir(3) : 
        Dipole               -0.4629 Ry au,         -1.1765 Debye
        Dipole field         -0.0009 Ry au, 
 
        Potential amp.        0.0810 Ry
        Total length         46.3494 bohr
 
 
     Adding external electric field

     Computed dipole along edir(3) : 
        Dipole               -0.4629 Ry au,         -1.1765 Debye
        Dipole field         -0.0009 Ry au, 
 
        Potential amp.        0.0810 Ry
        Total length         46.3494 bohr
 

     total cpu time spent up to now is      629.0 secs

     total energy              =   -3301.30486260 Ry
     estimated scf accuracy    <       0.01792975 Ry

     total magnetization       =     0.00 Bohr mag/cell
     absolute magnetization    =     0.03 Bohr mag/cell

     iteration # 24     ecut=    36.75 Ry     beta= 0.05
     Davidson diagonalization with overlap
     c_bands:  1 eigenvalues not converged
     c_bands:  2 eigenvalues not converged
     c_bands:  3 eigenvalues not converged
     c_bands:  1 eigenvalues not converged
     ethr =  4.57E-06,  avg # of iterations = 10.4

     negative rho (up, down):  1.093E-02 1.094E-02
 
     Adding external electric field

     Computed dipole along edir(3) : 
        Dipole               -0.4909 Ry au,         -1.2477 Debye
        Dipole field         -0.0009 Ry au, 
 
        Potential amp.        0.0859 Ry
        Total length         46.3494 bohr
 
 
     Adding external electric field

     Computed dipole along edir(3) : 
        Dipole               -0.4909 Ry au,         -1.2477 Debye
        Dipole field         -0.0009 Ry au, 
 
        Potential amp.        0.0859 Ry
        Total length         46.3494 bohr
 

     total cpu time spent up to now is      654.5 secs

     total energy              =   -3301.30573193 Ry
     estimated scf accuracy    <       0.01051544 Ry

     total magnetization       =     0.00 Bohr mag/cell
     absolute magnetization    =     0.03 Bohr mag/cell

     iteration # 25     ecut=    36.75 Ry     beta= 0.05
     Davidson diagonalization with overlap
     c_bands:  1 eigenvalues not converged
     c_bands:  2 eigenvalues not converged
     c_bands:  2 eigenvalues not converged
     c_bands:  1 eigenvalues not converged
     c_bands:  1 eigenvalues not converged
     c_bands:  1 eigenvalues not converged
     c_bands:  3 eigenvalues not converged
     c_bands:  4 eigenvalues not converged
     c_bands:  1 eigenvalues not converged
     c_bands:  1 eigenvalues not converged
     c_bands:  1 eigenvalues not converged
     c_bands:  2 eigenvalues not converged
     c_bands:  1 eigenvalues not converged
     c_bands:  2 eigenvalues not converged
     c_bands:  4 eigenvalues not converged
     c_bands:  3 eigenvalues not converged
     c_bands:  1 eigenvalues not converged
     ethr =  2.68E-06,  avg # of iterations = 19.4

     negative rho (up, down):  1.092E-02 1.093E-02
 
     Adding external electric field

     Computed dipole along edir(3) : 
        Dipole               -0.3367 Ry au,         -0.8559 Debye
        Dipole field         -0.0006 Ry au, 
 
        Potential amp.        0.0589 Ry
        Total length         46.3494 bohr
 
 
     Adding external electric field

     Computed dipole along edir(3) : 
        Dipole               -0.3367 Ry au,         -0.8559 Debye
        Dipole field         -0.0006 Ry au, 
 
        Potential amp.        0.0589 Ry
        Total length         46.3494 bohr
 

     total cpu time spent up to now is      696.8 secs

     total energy              =   -3301.30326439 Ry
     estimated scf accuracy    <       0.05066373 Ry

     total magnetization       =    -0.00 Bohr mag/cell
     absolute magnetization    =     0.02 Bohr mag/cell

     iteration # 26     ecut=    36.75 Ry     beta= 0.05
     Davidson diagonalization with overlap
     c_bands:  1 eigenvalues not converged
     c_bands:  2 eigenvalues not converged
     c_bands:  1 eigenvalues not converged
     c_bands:  2 eigenvalues not converged
     c_bands:  1 eigenvalues not converged
     c_bands:  1 eigenvalues not converged
     c_bands:  1 eigenvalues not converged
     c_bands:  1 eigenvalues not converged
     c_bands:  2 eigenvalues not converged
     c_bands:  1 eigenvalues not converged
     c_bands:  1 eigenvalues not converged
     c_bands:  1 eigenvalues not converged
     c_bands:  1 eigenvalues not converged
     c_bands:  1 eigenvalues not converged
     c_bands:  2 eigenvalues not converged
     ethr =  2.68E-06,  avg # of iterations = 18.7

     negative rho (up, down):  1.086E-02 1.087E-02
 
     Adding external electric field

     Computed dipole along edir(3) : 
        Dipole               -0.3714 Ry au,         -0.9441 Debye
        Dipole field         -0.0007 Ry au, 
 
        Potential amp.        0.0650 Ry
        Total length         46.3494 bohr
 
 
     Adding external electric field

     Computed dipole along edir(3) : 
        Dipole               -0.3714 Ry au,         -0.9441 Debye
        Dipole field         -0.0007 Ry au, 
 
        Potential amp.        0.0650 Ry
        Total length         46.3494 bohr
 

     total cpu time spent up to now is      737.1 secs

     total energy              =   -3301.30631097 Ry
     estimated scf accuracy    <       0.00470518 Ry

     total magnetization       =     0.00 Bohr mag/cell
     absolute magnetization    =     0.02 Bohr mag/cell

     iteration # 27     ecut=    36.75 Ry     beta= 0.05
     Davidson diagonalization with overlap
     c_bands:  1 eigenvalues not converged
     c_bands:  1 eigenvalues not converged
     c_bands:  1 eigenvalues not converged
     c_bands:  1 eigenvalues not converged
     c_bands:  2 eigenvalues not converged
     c_bands:  1 eigenvalues not converged
     c_bands:  1 eigenvalues not converged
     ethr =  1.20E-06,  avg # of iterations = 16.6

     negative rho (up, down):  1.084E-02 1.085E-02
 
     Adding external electric field

     Computed dipole along edir(3) : 
        Dipole               -0.3911 Ry au,         -0.9941 Debye
        Dipole field         -0.0007 Ry au, 
 
        Potential amp.        0.0684 Ry
        Total length         46.3494 bohr
 
 
     Adding external electric field

     Computed dipole along edir(3) : 
        Dipole               -0.3911 Ry au,         -0.9941 Debye
        Dipole field         -0.0007 Ry au, 
 
        Potential amp.        0.0684 Ry
        Total length         46.3494 bohr
 

     total cpu time spent up to now is      767.2 secs

     total energy              =   -3301.30687009 Ry
     estimated scf accuracy    <       0.00238762 Ry

     total magnetization       =     0.00 Bohr mag/cell
     absolute magnetization    =     0.02 Bohr mag/cell

     iteration # 28     ecut=    36.75 Ry     beta= 0.05
     Davidson diagonalization with overlap
     c_bands:  1 eigenvalues not converged
     c_bands:  1 eigenvalues not converged
     c_bands:  3 eigenvalues not converged
     c_bands:  1 eigenvalues not converged
     c_bands:  2 eigenvalues not converged
     c_bands:  1 eigenvalues not converged
     ethr =  6.09E-07,  avg # of iterations = 14.6

     negative rho (up, down):  1.086E-02 1.087E-02
 
     Adding external electric field

     Computed dipole along edir(3) : 
        Dipole               -0.3434 Ry au,         -0.8728 Debye
        Dipole field         -0.0006 Ry au, 
 
        Potential amp.        0.0601 Ry
        Total length         46.3494 bohr
 
 
     Adding external electric field

     Computed dipole along edir(3) : 
        Dipole               -0.3434 Ry au,         -0.8728 Debye
        Dipole field         -0.0006 Ry au, 
 
        Potential amp.        0.0601 Ry
        Total length         46.3494 bohr
 

     total cpu time spent up to now is      794.4 secs

     total energy              =   -3301.30668345 Ry
     estimated scf accuracy    <       0.00232893 Ry

     total magnetization       =     0.00 Bohr mag/cell
     absolute magnetization    =     0.02 Bohr mag/cell

     iteration # 29     ecut=    36.75 Ry     beta= 0.05
     Davidson diagonalization with overlap
     c_bands:  1 eigenvalues not converged
     c_bands:  1 eigenvalues not converged
     c_bands:  1 eigenvalues not converged
     c_bands:  1 eigenvalues not converged
     ethr =  5.94E-07,  avg # of iterations = 10.3

     negative rho (up, down):  1.082E-02 1.083E-02
 
     Adding external electric field

     Computed dipole along edir(3) : 
        Dipole               -0.3612 Ry au,         -0.9181 Debye
        Dipole field         -0.0007 Ry au, 
 
        Potential amp.        0.0632 Ry
        Total length         46.3494 bohr
 
 
     Adding external electric field

     Computed dipole along edir(3) : 
        Dipole               -0.3612 Ry au,         -0.9181 Debye
        Dipole field         -0.0007 Ry au, 
 
        Potential amp.        0.0632 Ry
        Total length         46.3494 bohr
 

     total cpu time spent up to now is      821.7 secs

     total energy              =   -3301.30692249 Ry
     estimated scf accuracy    <       0.00157163 Ry

     total magnetization       =     0.00 Bohr mag/cell
     absolute magnetization    =     0.02 Bohr mag/cell

     iteration # 30     ecut=    36.75 Ry     beta= 0.05
     Davidson diagonalization with overlap
     ethr =  4.01E-07,  avg # of iterations =  5.8

     negative rho (up, down):  1.080E-02 1.081E-02
 
     Adding external electric field

     Computed dipole along edir(3) : 
        Dipole               -0.3813 Ry au,         -0.9691 Debye
        Dipole field         -0.0007 Ry au, 
 
        Potential amp.        0.0667 Ry
        Total length         46.3494 bohr
 
 
     Adding external electric field

     Computed dipole along edir(3) : 
        Dipole               -0.3813 Ry au,         -0.9691 Debye
        Dipole field         -0.0007 Ry au, 
 
        Potential amp.        0.0667 Ry
        Total length         46.3494 bohr
 

     total cpu time spent up to now is      843.0 secs

     total energy              =   -3301.30692584 Ry
     estimated scf accuracy    <       0.00082871 Ry

     total magnetization       =     0.00 Bohr mag/cell
     absolute magnetization    =     0.02 Bohr mag/cell

     iteration # 31     ecut=    36.75 Ry     beta= 0.05
     Davidson diagonalization with overlap
     ethr =  2.11E-07,  avg # of iterations =  5.5

     negative rho (up, down):  1.104E-02 1.105E-02
 
     Adding external electric field

     Computed dipole along edir(3) : 
        Dipole               -0.3964 Ry au,         -1.0075 Debye
        Dipole field         -0.0007 Ry au, 
 
        Potential amp.        0.0693 Ry
        Total length         46.3494 bohr
 
 
     Adding external electric field

     Computed dipole along edir(3) : 
        Dipole               -0.3964 Ry au,         -1.0075 Debye
        Dipole field         -0.0007 Ry au, 
 
        Potential amp.        0.0693 Ry
        Total length         46.3494 bohr
 

     total cpu time spent up to now is      864.0 secs

     total energy              =   -3301.30701110 Ry
     estimated scf accuracy    <       0.00044973 Ry

     total magnetization       =     0.00 Bohr mag/cell
     absolute magnetization    =     0.02 Bohr mag/cell

     iteration # 32     ecut=    36.75 Ry     beta= 0.05
     Davidson diagonalization with overlap
     c_bands:  1 eigenvalues not converged
     c_bands:  3 eigenvalues not converged
     c_bands:  1 eigenvalues not converged
     c_bands:  1 eigenvalues not converged
     ethr =  1.15E-07,  avg # of iterations = 11.8

     negative rho (up, down):  1.087E-02 1.088E-02
 
     Adding external electric field

     Computed dipole along edir(3) : 
        Dipole               -0.3825 Ry au,         -0.9723 Debye
        Dipole field         -0.0007 Ry au, 
 
        Potential amp.        0.0669 Ry
        Total length         46.3494 bohr
 
 
     Adding external electric field

     Computed dipole along edir(3) : 
        Dipole               -0.3825 Ry au,         -0.9723 Debye
        Dipole field         -0.0007 Ry au, 
 
        Potential amp.        0.0669 Ry
        Total length         46.3494 bohr
 

     total cpu time spent up to now is      896.3 secs

     total energy              =   -3301.30693441 Ry
     estimated scf accuracy    <       0.00763985 Ry

     total magnetization       =     0.00 Bohr mag/cell
     absolute magnetization    =     0.01 Bohr mag/cell

     iteration # 33     ecut=    36.75 Ry     beta= 0.05
     Davidson diagonalization with overlap
     c_bands:  1 eigenvalues not converged
     ethr =  1.15E-07,  avg # of iterations =  4.7

     negative rho (up, down):  1.090E-02 1.091E-02
 
     Adding external electric field

     Computed dipole along edir(3) : 
        Dipole               -0.3711 Ry au,         -0.9433 Debye
        Dipole field         -0.0007 Ry au, 
 
        Potential amp.        0.0649 Ry
        Total length         46.3494 bohr
 
 
     Adding external electric field

     Computed dipole along edir(3) : 
        Dipole               -0.3711 Ry au,         -0.9433 Debye
        Dipole field         -0.0007 Ry au, 
 
        Potential amp.        0.0649 Ry
        Total length         46.3494 bohr
 

     total cpu time spent up to now is      916.9 secs

     total energy              =   -3301.30703543 Ry
     estimated scf accuracy    <       0.00035564 Ry

     total magnetization       =     0.00 Bohr mag/cell
     absolute magnetization    =     0.01 Bohr mag/cell

     iteration # 34     ecut=    36.75 Ry     beta= 0.05
     Davidson diagonalization with overlap
     ethr =  9.07E-08,  avg # of iterations =  4.8

     negative rho (up, down):  1.104E-02 1.105E-02
 
     Adding external electric field

     Computed dipole along edir(3) : 
        Dipole               -0.3666 Ry au,         -0.9318 Debye
        Dipole field         -0.0007 Ry au, 
 
        Potential amp.        0.0641 Ry
        Total length         46.3494 bohr
 
 
     Adding external electric field

     Computed dipole along edir(3) : 
        Dipole               -0.3666 Ry au,         -0.9318 Debye
        Dipole field         -0.0007 Ry au, 
 
        Potential amp.        0.0641 Ry
        Total length         46.3494 bohr
 

     total cpu time spent up to now is      940.6 secs

     total energy              =   -3301.30710505 Ry
     estimated scf accuracy    <       0.00012187 Ry

     total magnetization       =     0.00 Bohr mag/cell
     absolute magnetization    =     0.01 Bohr mag/cell

     iteration # 35     ecut=    36.75 Ry     beta= 0.05
     Davidson diagonalization with overlap
     ethr =  3.11E-08,  avg # of iterations =  4.5

     negative rho (up, down):  1.110E-02 1.111E-02
 
     Adding external electric field

     Computed dipole along edir(3) : 
        Dipole               -0.3702 Ry au,         -0.9409 Debye
        Dipole field         -0.0007 Ry au, 
 
        Potential amp.        0.0648 Ry
        Total length         46.3494 bohr
 
 
     Adding external electric field

     Computed dipole along edir(3) : 
        Dipole               -0.3702 Ry au,         -0.9409 Debye
        Dipole field         -0.0007 Ry au, 
 
        Potential amp.        0.0648 Ry
        Total length         46.3494 bohr
 

     total cpu time spent up to now is      961.4 secs

     total energy              =   -3301.30712154 Ry
     estimated scf accuracy    <       0.00008584 Ry

     total magnetization       =     0.00 Bohr mag/cell
     absolute magnetization    =     0.01 Bohr mag/cell

     iteration # 36     ecut=    36.75 Ry     beta= 0.05
     Davidson diagonalization with overlap
     ethr =  2.19E-08,  avg # of iterations =  5.0

     negative rho (up, down):  1.104E-02 1.105E-02
 
     Adding external electric field

     Computed dipole along edir(3) : 
        Dipole               -0.3624 Ry au,         -0.9211 Debye
        Dipole field         -0.0007 Ry au, 
 
        Potential amp.        0.0634 Ry
        Total length         46.3494 bohr
 
 
     Adding external electric field

     Computed dipole along edir(3) : 
        Dipole               -0.3624 Ry au,         -0.9211 Debye
        Dipole field         -0.0007 Ry au, 
 
        Potential amp.        0.0634 Ry
        Total length         46.3494 bohr
 

     total cpu time spent up to now is      986.0 secs

     total energy              =   -3301.30711346 Ry
     estimated scf accuracy    <       0.00059871 Ry

     total magnetization       =     0.00 Bohr mag/cell
     absolute magnetization    =     0.01 Bohr mag/cell

     iteration # 37     ecut=    36.75 Ry     beta= 0.05
     Davidson diagonalization with overlap
     ethr =  2.19E-08,  avg # of iterations =  2.0

     negative rho (up, down):  1.103E-02 1.103E-02
 
     Adding external electric field

     Computed dipole along edir(3) : 
        Dipole               -0.3574 Ry au,         -0.9084 Debye
        Dipole field         -0.0007 Ry au, 
 
        Potential amp.        0.0625 Ry
        Total length         46.3494 bohr
 
 
     Adding external electric field

     Computed dipole along edir(3) : 
        Dipole               -0.3574 Ry au,         -0.9084 Debye
        Dipole field         -0.0007 Ry au, 
 
        Potential amp.        0.0625 Ry
        Total length         46.3494 bohr
 

     total cpu time spent up to now is     1008.5 secs

     total energy              =   -3301.30712691 Ry
     estimated scf accuracy    <       0.00005322 Ry

     total magnetization       =     0.00 Bohr mag/cell
     absolute magnetization    =     0.01 Bohr mag/cell

     iteration # 38     ecut=    36.75 Ry     beta= 0.05
     Davidson diagonalization with overlap
     ethr =  1.36E-08,  avg # of iterations =  5.0

     negative rho (up, down):  1.103E-02 1.103E-02
 
     Adding external electric field

     Computed dipole along edir(3) : 
        Dipole               -0.3572 Ry au,         -0.9080 Debye
        Dipole field         -0.0007 Ry au, 
 
        Potential amp.        0.0625 Ry
        Total length         46.3494 bohr
 
 
     Adding external electric field

     Computed dipole along edir(3) : 
        Dipole               -0.3572 Ry au,         -0.9080 Debye
        Dipole field         -0.0007 Ry au, 
 
        Potential amp.        0.0625 Ry
        Total length         46.3494 bohr
 

     total cpu time spent up to now is     1029.2 secs

     total energy              =   -3301.30713579 Ry
     estimated scf accuracy    <       0.00001235 Ry

     total magnetization       =     0.00 Bohr mag/cell
     absolute magnetization    =     0.01 Bohr mag/cell

     iteration # 39     ecut=    36.75 Ry     beta= 0.05
     Davidson diagonalization with overlap
     c_bands:  1 eigenvalues not converged
     ethr =  3.15E-09,  avg # of iterations =  5.8

     negative rho (up, down):  1.109E-02 1.110E-02
 
     Adding external electric field

     Computed dipole along edir(3) : 
        Dipole               -0.3609 Ry au,         -0.9174 Debye
        Dipole field         -0.0007 Ry au, 
 
        Potential amp.        0.0631 Ry
        Total length         46.3494 bohr
 
 
     Adding external electric field

     Computed dipole along edir(3) : 
        Dipole               -0.3609 Ry au,         -0.9174 Debye
        Dipole field         -0.0007 Ry au, 
 
        Potential amp.        0.0631 Ry
        Total length         46.3494 bohr
 

     total cpu time spent up to now is     1052.0 secs

     total energy              =   -3301.30714053 Ry
     estimated scf accuracy    <       0.00001235 Ry

     total magnetization       =     0.00 Bohr mag/cell
     absolute magnetization    =     0.01 Bohr mag/cell

     iteration # 40     ecut=    36.75 Ry     beta= 0.05
     Davidson diagonalization with overlap
     ethr =  3.15E-09,  avg # of iterations =  6.0

     negative rho (up, down):  1.108E-02 1.109E-02
 
     Adding external electric field

     Computed dipole along edir(3) : 
        Dipole               -0.3579 Ry au,         -0.9097 Debye
        Dipole field         -0.0007 Ry au, 
 
        Potential amp.        0.0626 Ry
        Total length         46.3494 bohr
 
 
     Adding external electric field

     Computed dipole along edir(3) : 
        Dipole               -0.3579 Ry au,         -0.9097 Debye
        Dipole field         -0.0007 Ry au, 
 
        Potential amp.        0.0626 Ry
        Total length         46.3494 bohr
 

     total cpu time spent up to now is     1078.7 secs

     total energy              =   -3301.30714589 Ry
     estimated scf accuracy    <       0.00006559 Ry

     total magnetization       =     0.00 Bohr mag/cell
     absolute magnetization    =     0.01 Bohr mag/cell

     iteration # 41     ecut=    36.75 Ry     beta= 0.05
     Davidson diagonalization with overlap
     ethr =  3.15E-09,  avg # of iterations =  5.0

     negative rho (up, down):  1.106E-02 1.106E-02
 
     Adding external electric field

     Computed dipole along edir(3) : 
        Dipole               -0.3556 Ry au,         -0.9040 Debye
        Dipole field         -0.0007 Ry au, 
 
        Potential amp.        0.0622 Ry
        Total length         46.3494 bohr
 
 
     Adding external electric field

     Computed dipole along edir(3) : 
        Dipole               -0.3556 Ry au,         -0.9040 Debye
        Dipole field         -0.0007 Ry au, 
 
        Potential amp.        0.0622 Ry
        Total length         46.3494 bohr
 

     total cpu time spent up to now is     1100.6 secs

     total energy              =   -3301.30714808 Ry
     estimated scf accuracy    <       0.00001502 Ry

     total magnetization       =     0.00 Bohr mag/cell
     absolute magnetization    =     0.01 Bohr mag/cell

     iteration # 42     ecut=    36.75 Ry     beta= 0.05
     Davidson diagonalization with overlap
     ethr =  3.15E-09,  avg # of iterations =  2.0

     negative rho (up, down):  1.103E-02 1.104E-02
 
     Adding external electric field

     Computed dipole along edir(3) : 
        Dipole               -0.3536 Ry au,         -0.8988 Debye
        Dipole field         -0.0007 Ry au, 
 
        Potential amp.        0.0619 Ry
        Total length         46.3494 bohr
 
 
     Adding external electric field

     Computed dipole along edir(3) : 
        Dipole               -0.3536 Ry au,         -0.8988 Debye
        Dipole field         -0.0007 Ry au, 
 
        Potential amp.        0.0619 Ry
        Total length         46.3494 bohr
 

     total cpu time spent up to now is     1119.5 secs

     total energy              =   -3301.30715072 Ry
     estimated scf accuracy    <       0.00000197 Ry

     total magnetization       =     0.00 Bohr mag/cell
     absolute magnetization    =     0.01 Bohr mag/cell

     iteration # 43     ecut=    36.75 Ry     beta= 0.05
     Davidson diagonalization with overlap
     c_bands:  2 eigenvalues not converged
     ethr =  5.02E-10,  avg # of iterations =  5.8

     negative rho (up, down):  1.103E-02 1.104E-02
 
     Adding external electric field

     Computed dipole along edir(3) : 
        Dipole               -0.3544 Ry au,         -0.9008 Debye
        Dipole field         -0.0007 Ry au, 
 
        Potential amp.        0.0620 Ry
        Total length         46.3494 bohr
 
 
     Adding external electric field

     Computed dipole along edir(3) : 
        Dipole               -0.3544 Ry au,         -0.9008 Debye
        Dipole field         -0.0007 Ry au, 
 
        Potential amp.        0.0620 Ry
        Total length         46.3494 bohr
 

     total cpu time spent up to now is     1145.2 secs

     total energy              =   -3301.30715327 Ry
     estimated scf accuracy    <       0.00000283 Ry

     total magnetization       =     0.00 Bohr mag/cell
     absolute magnetization    =     0.01 Bohr mag/cell

     iteration # 44     ecut=    36.75 Ry     beta= 0.05
     Davidson diagonalization with overlap
     ethr =  5.02E-10,  avg # of iterations =  4.1

     negative rho (up, down):  1.104E-02 1.104E-02
 
     Adding external electric field

     Computed dipole along edir(3) : 
        Dipole               -0.3546 Ry au,         -0.9012 Debye
        Dipole field         -0.0007 Ry au, 
 
        Potential amp.        0.0620 Ry
        Total length         46.3494 bohr
 
 
     Adding external electric field

     Computed dipole along edir(3) : 
        Dipole               -0.3546 Ry au,         -0.9012 Debye
        Dipole field         -0.0007 Ry au, 
 
        Potential amp.        0.0620 Ry
        Total length         46.3494 bohr
 

     total cpu time spent up to now is     1165.3 secs

     total energy              =   -3301.30715558 Ry
     estimated scf accuracy    <       0.00000052 Ry

     total magnetization       =     0.00 Bohr mag/cell
     absolute magnetization    =     0.00 Bohr mag/cell

     iteration # 45     ecut=    36.75 Ry     beta= 0.05
     Davidson diagonalization with overlap
     ethr =  1.32E-10,  avg # of iterations =  5.4

     negative rho (up, down):  1.103E-02 1.103E-02
 
     Adding external electric field

     Computed dipole along edir(3) : 
        Dipole               -0.3540 Ry au,         -0.8997 Debye
        Dipole field         -0.0007 Ry au, 
 
        Potential amp.        0.0619 Ry
        Total length         46.3494 bohr
 
 
     Adding external electric field

     Computed dipole along edir(3) : 
        Dipole               -0.3540 Ry au,         -0.8997 Debye
        Dipole field         -0.0007 Ry au, 
 
        Potential amp.        0.0619 Ry
        Total length         46.3494 bohr
 

     total cpu time spent up to now is     1192.1 secs

     total energy              =   -3301.30715729 Ry
     estimated scf accuracy    <       0.00000105 Ry

     total magnetization       =     0.00 Bohr mag/cell
     absolute magnetization    =     0.00 Bohr mag/cell

     iteration # 46     ecut=    36.75 Ry     beta= 0.05
     Davidson diagonalization with overlap
     ethr =  1.32E-10,  avg # of iterations =  1.9

     negative rho (up, down):  1.102E-02 1.103E-02
 
     Adding external electric field

     Computed dipole along edir(3) : 
        Dipole               -0.3535 Ry au,         -0.8985 Debye
        Dipole field         -0.0007 Ry au, 
 
        Potential amp.        0.0618 Ry
        Total length         46.3494 bohr
 
 
     Adding external electric field

     Computed dipole along edir(3) : 
        Dipole               -0.3535 Ry au,         -0.8985 Debye
        Dipole field         -0.0007 Ry au, 
 
        Potential amp.        0.0618 Ry
        Total length         46.3494 bohr
 

     total cpu time spent up to now is     1211.9 secs

     total energy              =   -3301.30715888 Ry
     estimated scf accuracy    <       0.00000033 Ry

     total magnetization       =     0.00 Bohr mag/cell
     absolute magnetization    =     0.00 Bohr mag/cell

     iteration # 47     ecut=    36.75 Ry     beta= 0.05
     Davidson diagonalization with overlap
     ethr =  8.44E-11,  avg # of iterations =  6.0

     negative rho (up, down):  1.101E-02 1.102E-02
 
     Adding external electric field

     Computed dipole along edir(3) : 
        Dipole               -0.3535 Ry au,         -0.8985 Debye
        Dipole field         -0.0007 Ry au, 
 
        Potential amp.        0.0618 Ry
        Total length         46.3494 bohr
 
 
     Adding external electric field

     Computed dipole along edir(3) : 
        Dipole               -0.3535 Ry au,         -0.8985 Debye
        Dipole field         -0.0007 Ry au, 
 
        Potential amp.        0.0618 Ry
        Total length         46.3494 bohr
 

     total cpu time spent up to now is     1240.5 secs

     total energy              =   -3301.30716033 Ry
     estimated scf accuracy    <       0.00000054 Ry

     total magnetization       =     0.00 Bohr mag/cell
     absolute magnetization    =     0.00 Bohr mag/cell

     iteration # 48     ecut=    36.75 Ry     beta= 0.05
     Davidson diagonalization with overlap
     ethr =  8.44E-11,  avg # of iterations =  1.9

     negative rho (up, down):  1.101E-02 1.101E-02
 
     Adding external electric field

     Computed dipole along edir(3) : 
        Dipole               -0.3541 Ry au,         -0.9001 Debye
        Dipole field         -0.0007 Ry au, 
 
        Potential amp.        0.0619 Ry
        Total length         46.3494 bohr
 
 
     Adding external electric field

     Computed dipole along edir(3) : 
        Dipole               -0.3541 Ry au,         -0.9001 Debye
        Dipole field         -0.0007 Ry au, 
 
        Potential amp.        0.0619 Ry
        Total length         46.3494 bohr
 

     total cpu time spent up to now is     1259.2 secs

     total energy              =   -3301.30716146 Ry
     estimated scf accuracy    <       0.00000040 Ry

     total magnetization       =     0.00 Bohr mag/cell
     absolute magnetization    =     0.00 Bohr mag/cell

     iteration # 49     ecut=    36.75 Ry     beta= 0.05
     Davidson diagonalization with overlap
     ethr =  8.44E-11,  avg # of iterations =  7.5

     negative rho (up, down):  1.100E-02 1.100E-02
 
     Adding external electric field

     Computed dipole along edir(3) : 
        Dipole               -0.3542 Ry au,         -0.9003 Debye
        Dipole field         -0.0007 Ry au, 
 
        Potential amp.        0.0620 Ry
        Total length         46.3494 bohr
 
 
     Adding external electric field

     Computed dipole along edir(3) : 
        Dipole               -0.3542 Ry au,         -0.9003 Debye
        Dipole field         -0.0007 Ry au, 
 
        Potential amp.        0.0620 Ry
        Total length         46.3494 bohr
 

     total cpu time spent up to now is     1289.5 secs

     total energy              =   -3301.30716271 Ry
     estimated scf accuracy    <       0.00000050 Ry

     total magnetization       =     0.00 Bohr mag/cell
     absolute magnetization    =     0.00 Bohr mag/cell

     iteration # 50     ecut=    36.75 Ry     beta= 0.05
     Davidson diagonalization with overlap
     ethr =  8.44E-11,  avg # of iterations =  1.3

     negative rho (up, down):  1.100E-02 1.100E-02
 
     Adding external electric field

     Computed dipole along edir(3) : 
        Dipole               -0.3539 Ry au,         -0.8996 Debye
        Dipole field         -0.0007 Ry au, 
 
        Potential amp.        0.0619 Ry
        Total length         46.3494 bohr
 
 
     Adding external electric field

     Computed dipole along edir(3) : 
        Dipole               -0.3539 Ry au,         -0.8996 Debye
        Dipole field         -0.0007 Ry au, 
 
        Potential amp.        0.0619 Ry
        Total length         46.3494 bohr
 

     total cpu time spent up to now is     1308.0 secs

     total energy              =   -3301.30716363 Ry
     estimated scf accuracy    <       0.00000046 Ry

     total magnetization       =     0.00 Bohr mag/cell
     absolute magnetization    =     0.00 Bohr mag/cell

     iteration # 51     ecut=    36.75 Ry     beta= 0.05
     Davidson diagonalization with overlap
     ethr =  8.44E-11,  avg # of iterations =  6.0

     negative rho (up, down):  1.096E-02 1.096E-02
 
     Adding external electric field

     Computed dipole along edir(3) : 
        Dipole               -0.3545 Ry au,         -0.9011 Debye
        Dipole field         -0.0007 Ry au, 
 
        Potential amp.        0.0620 Ry
        Total length         46.3494 bohr
 
 
     Adding external electric field

     Computed dipole along edir(3) : 
        Dipole               -0.3545 Ry au,         -0.9011 Debye
        Dipole field         -0.0007 Ry au, 
 
        Potential amp.        0.0620 Ry
        Total length         46.3494 bohr
 
 
     Magnetic moment per site  (integrated on atomic sphere of radius R)
     atom   1 (R=0.742)  charge=  8.0731  magn=  0.0001
     atom   2 (R=0.742)  charge=  8.0721  magn=  0.0001
     atom   3 (R=0.742)  charge=  5.0155  magn= -0.0000
     atom   4 (R=0.742)  charge=  5.0853  magn= -0.0000
     atom   5 (R=0.742)  charge=  5.0443  magn= -0.0000
     atom   6 (R=0.742)  charge=  5.0435  magn= -0.0000
     atom   7 (R=0.742)  charge=  8.0627  magn=  0.0000
     atom   8 (R=0.742)  charge=  8.0579  magn=  0.0000
     atom   9 (R=0.742)  charge=  5.0561  magn= -0.0000
     atom  10 (R=0.742)  charge=  5.0116  magn= -0.0000
     atom  11 (R=0.742)  charge=  5.0486  magn= -0.0000
     atom  12 (R=0.742)  charge=  5.0453  magn= -0.0000
     atom  13 (R=0.742)  charge=  8.0715  magn=  0.0000
     atom  14 (R=0.742)  charge=  8.0701  magn=  0.0000
     atom  15 (R=0.742)  charge=  5.0333  magn= -0.0000
     atom  16 (R=0.742)  charge=  5.0602  magn= -0.0000
     atom  17 (R=0.742)  charge=  5.0347  magn= -0.0000
     atom  18 (R=0.742)  charge=  5.0363  magn= -0.0000
     atom  19 (R=0.742)  charge=  8.0917  magn=  0.0000
     atom  20 (R=0.742)  charge=  8.0952  magn=  0.0000
     atom  21 (R=0.742)  charge=  4.9251  magn= -0.0005
     atom  22 (R=0.742)  charge=  5.0196  magn= -0.0000
     atom  23 (R=0.742)  charge=  5.0356  magn= -0.0001
     atom  24 (R=0.742)  charge=  5.0358  magn= -0.0001
     atom  25 (R=0.742)  charge=  8.0737  magn=  0.0001
     atom  26 (R=0.742)  charge=  8.0721  magn=  0.0001
     atom  27 (R=0.742)  charge=  5.0264  magn= -0.0000
     atom  28 (R=0.742)  charge=  5.0852  magn= -0.0000
     atom  29 (R=0.742)  charge=  5.0440  magn= -0.0000
     atom  30 (R=0.742)  charge=  5.0433  magn= -0.0000
     atom  31 (R=0.742)  charge=  8.0622  magn=  0.0000
     atom  32 (R=0.742)  charge=  8.0577  magn=  0.0000
     atom  33 (R=0.742)  charge=  5.0565  magn= -0.0000
     atom  34 (R=0.742)  charge=  5.0185  magn= -0.0000
     atom  35 (R=0.742)  charge=  5.0483  magn=  0.0000
     atom  36 (R=0.742)  charge=  5.0454  magn= -0.0000
     atom  37 (R=0.742)  charge=  8.0709  magn=  0.0000
     atom  38 (R=0.742)  charge=  8.0700  magn=  0.0000
     atom  39 (R=0.742)  charge=  5.0379  magn= -0.0000
     atom  40 (R=0.742)  charge=  5.0625  magn= -0.0000
     atom  41 (R=0.742)  charge=  5.0354  magn= -0.0000
     atom  42 (R=0.742)  charge=  5.0359  magn= -0.0000
     atom  43 (R=0.742)  charge=  8.0920  magn=  0.0000
     atom  44 (R=0.742)  charge=  8.0945  magn=  0.0001
     atom  45 (R=0.742)  charge=  4.9252  magn= -0.0000
     atom  46 (R=0.527)  charge=  1.2861  magn= -0.0000
     atom  47 (R=0.742)  charge=  5.0356  magn= -0.0001
     atom  48 (R=0.742)  charge=  5.0358  magn= -0.0001
     atom  49 (R=0.473)  charge=  1.8212  magn=  0.0000
     atom  50 (R=0.473)  charge=  1.7430  magn= -0.0001

     total cpu time spent up to now is     1332.5 secs

     End of self-consistent calculation

 ------ SPIN UP ------------


          k = 0.0000 0.0000 0.0000 ( 24997 PWs)   bands (ev):

   -57.0357 -56.9857 -56.2778 -56.2681 -56.2435 -56.2327 -56.1206 -56.0859
   -56.0372 -56.0020 -55.9864 -55.9186 -55.7911 -55.7572 -55.4397 -55.3670
   -33.4044 -33.2407 -33.1861 -33.1696 -33.0722 -33.0303 -32.7559 -32.6899
   -32.5501 -32.5243 -32.4746 -32.4667 -32.4527 -32.4512 -32.4256 -32.4248
   -32.3967 -32.3753 -32.3637 -32.3464 -32.3286 -32.3168 -32.3094 -32.3021
   -32.2549 -32.2496 -32.2176 -32.2173 -32.1731 -32.1629 -32.1497 -32.1344
   -32.1229 -32.0882 -32.0730 -32.0702 -32.0546 -32.0460 -32.0314 -31.9556
   -31.9355 -31.8713 -31.7583 -31.6177 -31.6061 -31.5556 -31.5387 -31.4078
   -19.8609 -17.2637 -16.9887 -16.7020 -16.4673 -16.4499 -16.4261 -16.3454
   -16.3039 -16.2816 -16.1676 -16.1299 -16.0622 -16.0253 -15.8766 -15.8759
   -15.8403 -15.7849 -15.7814 -15.7663 -15.6855 -15.6662 -15.5997 -15.5036
   -15.4750 -15.4263 -15.3920 -15.2805 -15.2503 -15.0839 -14.3618 -14.2484
   -13.1258  -4.7583  -4.3524  -4.2213  -4.1863  -4.1027  -4.0627  -3.9828
    -3.8437  -3.8333  -3.6619  -3.6308  -3.5875  -3.5622  -3.5350  -3.4447
    -3.4003  -3.2869  -3.2596  -3.2547  -3.2034  -3.1747  -3.1309  -3.1087
    -2.9796  -2.9196  -2.8956  -2.8698  -2.8285  -2.7605  -2.7579  -2.6727
    -2.5728  -2.5626  -2.5133  -2.4938  -2.4844  -2.4379  -2.3963  -2.3437
    -2.3425  -2.2890  -2.2754  -2.1867  -2.0810  -1.9842  -1.9090  -1.7783
    -1.7604  -1.7436  -1.7351  -1.6785  -1.5428  -1.4554  -1.4372  -1.4320
    -1.3160  -1.3087  -1.2242  -1.2013  -1.1803  -1.1682  -1.1237  -1.0678
    -1.0257  -0.9281  -0.8853  -0.8411  -0.8361  -0.7841  -0.7655  -0.6727
    -0.5863  -0.5495  -0.5210  -0.5030  -0.4972  -0.4393  -0.3395  -0.3202
    -0.2549  -0.1866  -0.1265  -0.0750  -0.0551  -0.0375   0.0657   0.1710
     0.1954   0.2258   0.2288   0.2832   0.3459   0.4574   0.4928   0.8238
     0.8918   0.9169   1.5656   2.1616   2.2288   2.4335   2.7454   2.7928
     3.0975   3.1621   3.1994   3.2721   3.3140   3.3570

          k = 0.0000 0.0419 0.0000 ( 25032 PWs)   bands (ev):

   -57.0327 -56.9888 -56.2728 -56.2629 -56.2485 -56.2379 -56.1157 -56.0908
   -56.0322 -56.0070 -55.9841 -55.9209 -55.7862 -55.7622 -55.4376 -55.3691
   -33.3515 -33.2388 -33.1879 -33.1574 -33.0862 -33.0848 -32.6992 -32.6369
   -32.5136 -32.4962 -32.4617 -32.4596 -32.4569 -32.4191 -32.4176 -32.4073
   -32.3911 -32.3849 -32.3818 -32.3728 -32.3679 -32.3223 -32.3018 -32.2969
   -32.2531 -32.2483 -32.2309 -32.2199 -32.2038 -32.1677 -32.1467 -32.1370
   -32.1133 -32.0972 -32.0858 -32.0816 -32.0739 -32.0666 -32.0495 -31.9434
   -31.8931 -31.8839 -31.8154 -31.6383 -31.6051 -31.5558 -31.5399 -31.4334
   -19.8608 -17.1411 -16.8582 -16.5930 -16.5094 -16.4080 -16.3631 -16.3167
   -16.2904 -16.1998 -16.1800 -16.1215 -16.0969 -16.0363 -15.9990 -15.8775
   -15.8506 -15.8182 -15.7744 -15.7294 -15.7235 -15.6859 -15.6097 -15.5574
   -15.4781 -15.4770 -15.4287 -15.3367 -15.2799 -15.1519 -14.3674 -14.2887
   -13.1279  -4.5746  -4.1660  -4.0960  -4.0482  -4.0209  -3.9754  -3.9457
    -3.6834  -3.6706  -3.6614  -3.5698  -3.5517  -3.5389  -3.4515  -3.4027
    -3.3721  -3.3626  -3.3279  -3.2446  -3.2149  -3.1530  -3.1318  -3.1284
    -3.0472  -3.0162  -2.9603  -2.9478  -2.9024  -2.8674  -2.8589  -2.7775
    -2.7376  -2.7326  -2.6891  -2.6192  -2.5463  -2.4403  -2.3971  -2.3909
    -2.3490  -2.1065  -2.0680  -2.0579  -1.9777  -1.9562  -1.8150  -1.7952
    -1.7201  -1.6977  -1.6673  -1.5118  -1.5012  -1.4834  -1.4407  -1.3836
    -1.3470  -1.3075  -1.2431  -1.2284  -1.1362  -1.0887  -1.0552  -1.0154
    -0.9770  -0.9308  -0.9192  -0.8786  -0.8365  -0.7952  -0.7533  -0.7293
    -0.6922  -0.6838  -0.6385  -0.5614  -0.4681  -0.4408  -0.4105  -0.3808
    -0.3357  -0.2945  -0.2744  -0.1711  -0.1370  -0.1192  -0.0452  -0.0220
     0.0375   0.0663   0.1951   0.2579   0.4221   0.4592   0.5516   0.7347
     0.7596   0.8583   1.5942   2.0744   2.4977   2.5435   2.7321   3.0210
     3.0258   3.1018   3.1466   3.1883   3.2385   3.2415

          k = 0.0000-0.0839 0.0000 ( 25042 PWs)   bands (ev):

   -57.0292 -56.9923 -56.2625 -56.2588 -56.2508 -56.2500 -56.1059 -56.1006
   -56.0223 -56.0169 -55.9817 -55.9234 -55.7742 -55.7742 -55.4354 -55.3713
   -33.2368 -33.2353 -33.2053 -33.1899 -33.1373 -33.1052 -32.5631 -32.5623
   -32.5095 -32.5063 -32.4751 -32.4739 -32.4416 -32.4408 -32.4226 -32.4222
   -32.4008 -32.3989 -32.3841 -32.3370 -32.3208 -32.3097 -32.2694 -32.2643
   -32.2559 -32.2548 -32.2507 -32.2480 -32.2470 -32.2081 -32.1734 -32.1676
   -32.1487 -32.1427 -32.1065 -32.0752 -32.0581 -32.0580 -31.9506 -31.9506
   -31.9138 -31.9138 -31.8303 -31.6841 -31.6040 -31.5499 -31.5411 -31.4601
   -19.8607 -16.8409 -16.8321 -16.5388 -16.5270 -16.3603 -16.3414 -16.2649
   -16.2647 -16.2162 -16.1556 -16.0877 -16.0823 -15.9976 -15.9844 -15.9831
   -15.9663 -15.9265 -15.8748 -15.6900 -15.6863 -15.6054 -15.6027 -15.5753
   -15.4858 -15.4811 -15.4752 -15.4702 -15.3341 -15.2305 -14.3525 -14.3505
   -13.1300  -4.1145  -4.1131  -4.0649  -4.0017  -3.8513  -3.7265  -3.7243
    -3.6557  -3.6445  -3.6411  -3.6335  -3.5707  -3.5524  -3.4644  -3.4164
    -3.3541  -3.3458  -3.3295  -3.3264  -3.3006  -3.2791  -3.2352  -3.2254
    -3.0741  -3.0410  -2.9148  -2.8919  -2.8659  -2.8087  -2.7880  -2.7682
    -2.7409  -2.6804  -2.6487  -2.5670  -2.4799  -2.4614  -2.4383  -2.3659
    -2.3524  -2.3301  -2.3260  -2.1419  -2.1202  -1.8650  -1.8160  -1.7910
    -1.7477  -1.6948  -1.6743  -1.5813  -1.5765  -1.4815  -1.4705  -1.3192
    -1.2517  -1.2036  -1.1641  -1.1565  -1.1506  -1.0673  -1.0576  -1.0501
    -0.9677  -0.8814  -0.8580  -0.8556  -0.8220  -0.7631  -0.7391  -0.7178
    -0.6747  -0.6349  -0.6149  -0.5966  -0.5892  -0.5787  -0.5151  -0.5087
    -0.4884  -0.3813  -0.3383  -0.3070  -0.2983  -0.2766  -0.2216  -0.1379
    -0.0896   0.0298   0.2688   0.3726   0.4308   0.5494   0.5861   0.5875
     0.7262   0.7352   1.6494   1.9788   2.7325   2.7711   2.8771   2.8950
     2.9255   2.9379   3.2365   3.2490   3.3159   3.3514

          k = 0.0380 0.0000 0.0000 ( 25008 PWs)   bands (ev):

[...]
    -1.5015  -1.3629  -1.2766  -1.2747  -1.1894  -1.1366  -1.0893  -1.0748
    -1.0438  -0.9773  -0.9676  -0.8736  -0.8376  -0.7588  -0.6861  -0.6540
    -0.6336  -0.5865  -0.5685  -0.5185  -0.4485  -0.4286  -0.4042  -0.3751
    -0.3046  -0.2775  -0.2254  -0.2124  -0.0768  -0.0671   0.0124   0.0731
     0.0865   0.1439   0.2023   0.2232   0.2407   0.3975   0.4245   0.7045
     0.7522   0.8098   1.5680   2.0637   2.4280   2.4287   2.7407   2.8440
     3.0749   3.1438   3.2371   3.2653   3.2742   3.2932

          k = 0.0380 0.0419 0.0000 ( 25075 PWs)   bands (ev):

   -57.0331 -56.9892 -56.2736 -56.2593 -56.2493 -56.2342 -56.1162 -56.0914
   -56.0266 -56.0016 -55.9853 -55.9196 -55.7868 -55.7627 -55.4352 -55.3721
   -33.3528 -33.2391 -33.1883 -33.1561 -33.0868 -33.0849 -32.6960 -32.6406
   -32.5118 -32.4980 -32.4613 -32.4567 -32.4508 -32.4155 -32.4106 -32.4069
   -32.4026 -32.3868 -32.3789 -32.3751 -32.3409 -32.3169 -32.2975 -32.2974
   -32.2622 -32.2485 -32.2315 -32.2204 -32.1963 -32.1737 -32.1483 -32.1316
   -32.1084 -32.0973 -32.0847 -32.0820 -32.0725 -32.0692 -32.0493 -31.9440
   -31.8944 -31.8845 -31.8160 -31.6394 -31.6032 -31.5548 -31.5426 -31.4350
   -19.8672 -17.0405 -16.7957 -16.6100 -16.5255 -16.4390 -16.3276 -16.2715
   -16.2609 -16.2230 -16.1761 -16.1433 -16.0888 -16.0452 -16.0332 -15.9536
   -15.8700 -15.8396 -15.7760 -15.7410 -15.6849 -15.6511 -15.6396 -15.5675
   -15.5536 -15.4682 -15.4166 -15.3748 -15.2724 -15.1553 -14.3665 -14.2900
   -13.1315  -4.2972  -4.0857  -4.0735  -4.0226  -3.9366  -3.8134  -3.7780
    -3.7386  -3.6396  -3.6293  -3.5288  -3.4914  -3.4616  -3.4461  -3.3797
    -3.3714  -3.3379  -3.3062  -3.2701  -3.1967  -3.1639  -3.0787  -3.0502
    -3.0389  -2.9503  -2.9383  -2.9072  -2.8718  -2.8472  -2.8126  -2.8053
    -2.7410  -2.6595  -2.6164  -2.5801  -2.5095  -2.4656  -2.3957  -2.3609
    -2.2097  -2.1626  -2.1244  -2.0074  -1.9718  -1.9352  -1.9120  -1.8345
    -1.7502  -1.7274  -1.6891  -1.6347  -1.6035  -1.5493  -1.4569  -1.4452
    -1.4251  -1.3809  -1.3315  -1.3058  -1.2203  -1.1928  -1.1586  -1.1241
    -1.0685  -1.0508  -1.0161  -0.9805  -0.9459  -0.9239  -0.8214  -0.7708
    -0.7341  -0.7304  -0.6712  -0.6059  -0.5918  -0.5242  -0.4607  -0.4335
    -0.3803  -0.2918  -0.2150  -0.1885  -0.1607  -0.1266  -0.0220   0.0094
     0.0503   0.1060   0.1450   0.2069   0.3807   0.4757   0.5612   0.6799
     0.7021   0.7832   1.6030   2.0623   2.5347   2.6740   2.7584   2.8883
     3.1183   3.1898   3.2092   3.2286   3.2760   3.3040

          k = 0.0380-0.0839 0.0000 ( 25070 PWs)   bands (ev):

   -57.0296 -56.9927 -56.2634 -56.2595 -56.2472 -56.2463 -56.1065 -56.1012
   -56.0164 -56.0118 -55.9830 -55.9219 -55.7748 -55.7748 -55.4328 -55.3745
   -33.2371 -33.2363 -33.2063 -33.1902 -33.1368 -33.1046 -32.5603 -32.5587
   -32.5131 -32.5098 -32.4749 -32.4728 -32.4393 -32.4385 -32.4180 -32.4171
   -32.3975 -32.3968 -32.3825 -32.3367 -32.3150 -32.3060 -32.2699 -32.2615
   -32.2559 -32.2550 -32.2525 -32.2502 -32.2427 -32.2043 -32.1671 -32.1611
   -32.1514 -32.1443 -32.1083 -32.0738 -32.0592 -32.0592 -31.9511 -31.9511
   -31.9144 -31.9144 -31.8318 -31.6858 -31.6014 -31.5474 -31.5443 -31.4627
   -19.8670 -16.7718 -16.7633 -16.4940 -16.4900 -16.3821 -16.3706 -16.3196
   -16.3017 -16.2010 -16.1432 -16.0641 -16.0609 -15.9885 -15.9655 -15.9434
   -15.9294 -15.9020 -15.8644 -15.7446 -15.7392 -15.6812 -15.6774 -15.5923
   -15.5779 -15.5151 -15.4558 -15.4415 -15.3214 -15.2335 -14.3538 -14.3510
   -13.1336  -4.0669  -4.0046  -3.9077  -3.9063  -3.8331  -3.6825  -3.6797
    -3.5520  -3.5410  -3.5065  -3.4897  -3.4568  -3.4135  -3.3622  -3.3592
    -3.3038  -3.2857  -3.2848  -3.2669  -3.2157  -3.1868  -3.1370  -3.0523
    -3.0322  -3.0114  -2.9935  -2.9635  -2.8593  -2.8385  -2.7745  -2.7575
    -2.6833  -2.6430  -2.5768  -2.5691  -2.5454  -2.5171  -2.4434  -2.4135
    -2.4042  -2.2400  -2.2349  -2.0944  -2.0676  -2.0241  -1.9995  -1.9491
    -1.9408  -1.7858  -1.7769  -1.7265  -1.5949  -1.5082  -1.4915  -1.4335
    -1.4207  -1.3891  -1.3359  -1.2776  -1.2230  -1.1822  -1.1698  -1.1355
    -1.1212  -1.0841  -1.0664  -0.9929  -0.9743  -0.8902  -0.8439  -0.7853
    -0.7686  -0.7284  -0.6946  -0.6555  -0.6425  -0.6054  -0.5817  -0.5662
    -0.5374  -0.3384  -0.3186  -0.2272  -0.1837  -0.1224  -0.0741  -0.0258
     0.0151   0.1003   0.2631   0.3554   0.4530   0.5161   0.6019   0.6027
     0.7067   0.7091   1.6611   2.0480   2.7398   2.7506   2.9213   2.9241
     3.0870   3.1088   3.2428   3.2559   3.3090   3.3427

          k = 0.0380-0.0419 0.0000 ( 25077 PWs)   bands (ev):

   -57.0331 -56.9892 -56.2736 -56.2593 -56.2493 -56.2342 -56.1162 -56.0914
   -56.0266 -56.0016 -55.9853 -55.9196 -55.7868 -55.7627 -55.4352 -55.3721
   -33.3528 -33.2391 -33.1883 -33.1561 -33.0868 -33.0849 -32.6960 -32.6406
   -32.5118 -32.4980 -32.4613 -32.4567 -32.4508 -32.4155 -32.4105 -32.4069
   -32.4027 -32.3868 -32.3789 -32.3751 -32.3409 -32.3169 -32.2975 -32.2974
   -32.2622 -32.2485 -32.2315 -32.2204 -32.1964 -32.1737 -32.1483 -32.1316
   -32.1084 -32.0972 -32.0847 -32.0820 -32.0725 -32.0692 -32.0493 -31.9440
   -31.8944 -31.8845 -31.8160 -31.6393 -31.6032 -31.5549 -31.5426 -31.4350
   -19.8672 -17.0403 -16.7956 -16.6107 -16.5254 -16.4389 -16.3269 -16.2715
   -16.2610 -16.2229 -16.1763 -16.1434 -16.0887 -16.0456 -16.0335 -15.9536
   -15.8699 -15.8396 -15.7774 -15.7392 -15.6843 -15.6513 -15.6398 -15.5668
   -15.5538 -15.4690 -15.4167 -15.3749 -15.2722 -15.1552 -14.3665 -14.2900
   -13.1315  -4.2965  -4.0858  -4.0734  -4.0242  -3.9348  -3.8130  -3.7790
    -3.7374  -3.6390  -3.6291  -3.5288  -3.4920  -3.4616  -3.4468  -3.3804
    -3.3710  -3.3380  -3.3066  -3.2712  -3.1974  -3.1629  -3.0779  -3.0492
    -3.0401  -2.9506  -2.9398  -2.9083  -2.8708  -2.8481  -2.8099  -2.8048
    -2.7415  -2.6587  -2.6180  -2.5792  -2.5135  -2.4648  -2.3955  -2.3615
    -2.2060  -2.1615  -2.1237  -2.0064  -1.9723  -1.9325  -1.9121  -1.8347
    -1.7503  -1.7272  -1.6888  -1.6367  -1.6028  -1.5502  -1.4561  -1.4463
    -1.4271  -1.3844  -1.3321  -1.3051  -1.2180  -1.1909  -1.1616  -1.1282
    -1.0737  -1.0488  -1.0161  -0.9781  -0.9514  -0.9254  -0.8210  -0.7605
    -0.7378  -0.7231  -0.6689  -0.6237  -0.5915  -0.5036  -0.4602  -0.4378
    -0.3813  -0.2882  -0.2131  -0.1892  -0.1612  -0.1288  -0.0207   0.0092
     0.0456   0.0982   0.1488   0.2091   0.3817   0.4758   0.5612   0.6797
     0.7026   0.7838   1.6021   2.0621   2.5350   2.6744   2.7583   2.8873
     3.1186   3.1897   3.2089   3.2289   3.2750   3.3044

          k =-0.0760-0.0000 0.0000 ( 25092 PWs)   bands (ev):

   -57.0361 -56.9861 -56.2785 -56.2644 -56.2443 -56.2289 -56.1212 -56.0864
   -56.0316 -55.9965 -55.9875 -55.9174 -55.7918 -55.7577 -55.4375 -55.3698
   -33.4067 -33.2410 -33.1865 -33.1661 -33.0728 -33.0307 -32.7529 -32.6964
   -32.5524 -32.5222 -32.4662 -32.4540 -32.4533 -32.4521 -32.4484 -32.4054
   -32.3938 -32.3627 -32.3427 -32.3420 -32.3234 -32.3173 -32.3100 -32.2976
   -32.2798 -32.2436 -32.2181 -32.2067 -32.1893 -32.1637 -32.1513 -32.1346
   -32.1188 -32.0876 -32.0762 -32.0715 -32.0493 -32.0439 -32.0309 -31.9562
   -31.9360 -31.8719 -31.7589 -31.6176 -31.6069 -31.5562 -31.5405 -31.4090
   -19.8673 -16.9646 -16.8745 -16.7095 -16.6598 -16.5075 -16.3325 -16.3001
   -16.2850 -16.1980 -16.1533 -16.1338 -16.0872 -16.0782 -16.0504 -16.0094
   -15.9214 -15.8737 -15.8391 -15.8099 -15.6764 -15.5965 -15.5212 -15.5023
   -15.4488 -15.4250 -15.3779 -15.3603 -15.2390 -15.0845 -14.3573 -14.2489
   -13.1288  -4.2432  -4.1055  -4.0850  -4.0731  -4.0364  -3.9677  -3.8260
    -3.7871  -3.7631  -3.7185  -3.5698  -3.5589  -3.5058  -3.4764  -3.4276
    -3.4173  -3.3330  -3.2495  -3.1265  -3.1239  -3.0917  -2.9809  -2.9391
    -2.9188  -2.8969  -2.8398  -2.8311  -2.7841  -2.7180  -2.6316  -2.5729
    -2.5147  -2.4821  -2.4508  -2.4277  -2.4071  -2.3735  -2.3381  -2.3376
    -2.3366  -2.2834  -2.2549  -2.1566  -2.1371  -2.0732  -2.0190  -1.9486
    -1.9094  -1.8642  -1.8346  -1.8073  -1.7377  -1.5463  -1.5239  -1.5078
    -1.4941  -1.4630  -1.4212  -1.3405  -1.2517  -1.2305  -1.1269  -1.1133
    -1.0960  -1.0661  -0.9482  -0.9409  -0.8985  -0.8359  -0.7194  -0.6836
    -0.6699  -0.6230  -0.5974  -0.5656  -0.5396  -0.4993  -0.4789  -0.3871
    -0.3420  -0.2194  -0.1969  -0.1537  -0.1373  -0.0537  -0.0222   0.0078
     0.0656   0.1327   0.1481   0.2636   0.3322   0.3593   0.3970   0.5265
     0.5623   0.7061   1.5688   1.9786   2.4320   2.5500   2.5808   2.7443
     3.0001   3.1969   3.1990   3.2330   3.2386   3.2615

          k =-0.0760 0.0419 0.0000 ( 25078 PWs)   bands (ev):

   -57.0331 -56.9892 -56.2736 -56.2592 -56.2492 -56.2342 -56.1163 -56.0914
   -56.0266 -56.0016 -55.9853 -55.9196 -55.7868 -55.7627 -55.4353 -55.3721
   -33.3536 -33.2391 -33.1883 -33.1545 -33.0870 -33.0847 -32.6962 -32.6434
   -32.5118 -32.4991 -32.4613 -32.4567 -32.4397 -32.4211 -32.4138 -32.4072
   -32.3996 -32.3878 -32.3775 -32.3751 -32.3270 -32.3170 -32.2975 -32.2974
   -32.2713 -32.2480 -32.2315 -32.2205 -32.1940 -32.1803 -32.1487 -32.1315
   -32.1087 -32.0985 -32.0844 -32.0819 -32.0725 -32.0713 -32.0485 -31.9440
   -31.8940 -31.8845 -31.8160 -31.6393 -31.6046 -31.5549 -31.5427 -31.4350
   -19.8672 -16.8475 -16.7664 -16.6682 -16.5976 -16.4071 -16.2980 -16.2894
   -16.2576 -16.1887 -16.1767 -16.1169 -16.0948 -16.0498 -16.0480 -15.9845
   -15.8701 -15.8464 -15.8427 -15.8065 -15.7248 -15.6446 -15.6369 -15.6198
   -15.5379 -15.4623 -15.4148 -15.3919 -15.2700 -15.1546 -14.3646 -14.2903
   -13.1312  -4.0756  -4.0701  -4.0167  -3.8890  -3.8778  -3.7998  -3.7146
    -3.6203  -3.5329  -3.5175  -3.4882  -3.4373  -3.4016  -3.3752  -3.3323
    -3.2912  -3.2687  -3.2325  -3.2152  -3.1760  -3.1735  -3.1207  -3.0443
    -2.9914  -2.9737  -2.9049  -2.8609  -2.8184  -2.7831  -2.7614  -2.7230
    -2.6112  -2.5835  -2.5543  -2.5158  -2.5046  -2.4680  -2.3549  -2.3297
    -2.2788  -2.2203  -2.1385  -2.0803  -2.0631  -2.0337  -1.9425  -1.8501
    -1.8187  -1.7952  -1.7879  -1.7535  -1.7036  -1.6541  -1.6326  -1.5595
    -1.4440  -1.4273  -1.4071  -1.3631  -1.3202  -1.2990  -1.2771  -1.2419
    -1.2018  -1.1736  -1.1111  -1.0880  -1.0682  -0.9663  -0.9221  -0.8894
    -0.8567  -0.8021  -0.7424  -0.7238  -0.6725  -0.6226  -0.5658  -0.4732
    -0.2617  -0.2406  -0.2189  -0.1080  -0.0815  -0.0666   0.0062   0.0687
     0.1255   0.1509   0.2072   0.2777   0.3368   0.4836   0.4953   0.6145
     0.6186   0.7432   1.6133   2.0574   2.5410   2.6525   2.7345   2.8128
     3.1625   3.2222   3.2290   3.2625   3.2787   3.3086

          k =-0.0760-0.0839 0.0000 ( 25128 PWs)   bands (ev):

   -57.0296 -56.9927 -56.2634 -56.2594 -56.2471 -56.2463 -56.1065 -56.1012
   -56.0164 -56.0118 -55.9830 -55.9219 -55.7748 -55.7748 -55.4328 -55.3745
   -33.2372 -33.2368 -33.2069 -33.1903 -33.1358 -33.1036 -32.5604 -32.5588
   -32.5156 -32.5124 -32.4749 -32.4729 -32.4394 -32.4385 -32.4138 -32.4116
   -32.3984 -32.3959 -32.3791 -32.3353 -32.3152 -32.3062 -32.2698 -32.2611
   -32.2597 -32.2569 -32.2521 -32.2508 -32.2434 -32.2017 -32.1657 -32.1600
   -32.1547 -32.1444 -32.1118 -32.0737 -32.0598 -32.0598 -31.9510 -31.9510
   -31.9144 -31.9144 -31.8317 -31.6856 -31.6021 -31.5473 -31.5450 -31.4627
   -19.8671 -16.6165 -16.6155 -16.5694 -16.5488 -16.4330 -16.4327 -16.2647
   -16.2604 -16.2313 -16.1485 -16.0523 -16.0470 -15.9876 -15.9393 -15.8728
   -15.8403 -15.8361 -15.8164 -15.7961 -15.7923 -15.7604 -15.7552 -15.7329
   -15.7228 -15.5102 -15.4529 -15.4272 -15.3137 -15.2318 -14.3536 -14.3508
   -13.1336  -4.0652  -4.0041  -3.8243  -3.7211  -3.7207  -3.5803  -3.5776
    -3.4909  -3.4168  -3.4002  -3.3925  -3.3714  -3.3709  -3.2694  -3.2648
    -3.1331  -3.1300  -3.0876  -3.0838  -3.0481  -3.0362  -3.0106  -2.9563
    -2.9270  -2.9247  -2.9028  -2.8978  -2.8751  -2.8432  -2.8133  -2.8035
    -2.7530  -2.6930  -2.6551  -2.5836  -2.5630  -2.5580  -2.5248  -2.4593
    -2.3779  -2.3461  -2.2782  -2.2040  -2.1938  -2.1128  -2.0117  -1.9431
    -1.9279  -1.8921  -1.8634  -1.7298  -1.7149  -1.7013  -1.6767  -1.6270
    -1.5998  -1.5566  -1.4939  -1.3796  -1.3563  -1.3321  -1.3158  -1.2474
    -1.2376  -1.2347  -1.1908  -1.0988  -1.0697  -1.0469  -1.0313  -0.9691
    -0.9594  -0.9045  -0.8626  -0.7304  -0.7098  -0.6455  -0.6245  -0.6136
    -0.5847  -0.1911  -0.1191  -0.0785  -0.0441   0.0452   0.0837   0.1099
     0.1372   0.1986   0.2606   0.3392   0.3731   0.4720   0.6278   0.6344
     0.6706   0.6803   1.6744   2.1141   2.7817   2.8114   2.8650   2.9016
     3.1874   3.2167   3.2420   3.2764   3.2898   3.3287

     the Fermi energy is     2.1946 ev

!    total energy              =   -3301.30718914 Ry
     estimated scf accuracy    <       0.00000003 Ry
     smearing contrib. (-TS)   =      -0.00002675 Ry
     internal energy E=F+TS    =   -3301.30716239 Ry

     The total energy is F=E-TS. E is the sum of the following terms:
     one-electron contribution =  -24007.22165616 Ry
     hartree contribution      =   12094.79096689 Ry
     xc contribution           =    -556.05835278 Ry
     ewald contribution        =    9485.64771847 Ry
     electric field correction =       0.00023589 Ry
     one-center paw contrib.   =    -318.46607470 Ry

     total magnetization       =    -0.00 Bohr mag/cell
     absolute magnetization    =     0.00 Bohr mag/cell

     convergence has been achieved in  22 iterations

     negative rho (up, down):  1.096E-02 1.096E-02

     Forces acting on atoms (cartesian axes, Ry/au):

     atom    1 type  1   force =     0.00009697   -0.00003722    0.13665220
     atom    2 type  1   force =    -0.00011595    0.00027503   -0.16690738
     atom    3 type  2   force =    -0.00015661   -0.00010901   -0.07347888
     atom    4 type  2   force =     0.00002182    0.00005807    0.02792597
     atom    5 type  2   force =    -0.02674560    0.00005982   -0.00353920
     atom    6 type  2   force =     0.02626382    0.00046440   -0.00499982
     atom    7 type  1   force =    -0.00165901    0.00043197    0.02148008
     atom    8 type  1   force =     0.00130322   -0.01824217    0.05655680
     atom    9 type  2   force =     0.00048597   -0.00013390   -0.00009468
     atom   10 type  2   force =    -0.00044379    0.00036343   -0.03602256
     atom   11 type  2   force =     0.00013106   -0.00028396   -0.00009418
     atom   12 type  2   force =     0.00064760   -0.00005755    0.00012660
     atom   13 type  1   force =     0.00066252   -0.00039479    0.00037180
     atom   14 type  1   force =    -0.00009956    0.00027654    0.00015442
     atom   15 type  2   force =     0.00019308   -0.00014421   -0.00000833
     atom   16 type  2   force =     0.00031587   -0.00031754   -0.00045366
     atom   17 type  2   force =    -0.00005721    0.00009810   -0.00007765
     atom   18 type  2   force =    -0.00002577    0.00003781   -0.00007091
     atom   19 type  1   force =    -0.00019549   -0.00041709   -0.00031702
     atom   20 type  1   force =    -0.00024244    0.00082746   -0.00017120
     atom   21 type  2   force =     0.00006720    0.00009233    0.09992877
     atom   22 type  2   force =    -0.00043751    0.00015107    0.00066215
     atom   23 type  2   force =    -0.07516908    0.00141943   -0.03406241
     atom   24 type  2   force =     0.07506775    0.00185426   -0.03409294
     atom   25 type  1   force =     0.00009165   -0.00010849    0.14608440
     atom   26 type  1   force =    -0.00012046   -0.00039169   -0.16687126
     atom   27 type  2   force =    -0.00018821   -0.00009125   -0.07139334
     atom   28 type  2   force =     0.00000923    0.00000993    0.02794685
     atom   29 type  2   force =    -0.02662006   -0.00062978   -0.00349624
     atom   30 type  2   force =     0.02614030   -0.00008194   -0.00495703
     atom   31 type  1   force =    -0.00165771   -0.00039228    0.02111596
     atom   32 type  1   force =     0.00130175    0.01810724    0.05632185
     atom   33 type  2   force =     0.00062112   -0.00016181    0.00020203
     atom   34 type  2   force =    -0.00034226    0.00078406   -0.02614997
     atom   35 type  2   force =    -0.00001928   -0.00004978   -0.00013468
     atom   36 type  2   force =     0.00060545   -0.00001832    0.00003710
     atom   37 type  1   force =     0.00072181   -0.00027139   -0.00003135
     atom   38 type  1   force =    -0.00006541   -0.00051339    0.00009748
     atom   39 type  2   force =     0.00001367   -0.00006029    0.00000117
     atom   40 type  2   force =     0.00042485   -0.00011132    0.00002004
     atom   41 type  2   force =     0.00023361    0.00004312    0.00005313
     atom   42 type  2   force =    -0.00034307    0.00018324    0.00001466
     atom   43 type  1   force =    -0.00048349   -0.00008181   -0.00009658
     atom   44 type  1   force =    -0.00014462   -0.00030650    0.00000142
     atom   45 type  2   force =     0.00006691    0.00009221    0.10001632
     atom   46 type  3   force =     0.00014703    0.00013237   -0.00037230
     atom   47 type  2   force =    -0.07517050   -0.00169942   -0.03406431
     atom   48 type  2   force =     0.07507564   -0.00126437   -0.03409530
     atom   49 type  4   force =    -0.00030180    0.00028716   -0.00067344
     atom   50 type  4   force =     0.00009498    0.00032220    0.00095539

     Total force =     0.409638     Total SCF correction =     0.000708
  @ DRIVER MODE: Message from server: STATUS
  @ DRIVER MODE: Message from server: GETFORCE
  @ DRIVER MODE: Returning v,forces,stress,ensemble 

     Writing output data file ./calc.save/
  @ DRIVER MODE: Message from server: EXIT
  @ DRIVE MODE: Exiting  
 
     init_run     :     15.31s CPU     15.78s WALL (       1 calls)
     electrons    :   2343.61s CPU   2390.71s WALL (       3 calls)
     update_pot   :      4.18s CPU      4.38s WALL (       2 calls)
     forces       :     19.50s CPU     23.91s WALL (       3 calls)

     Called by init_run:
     wfcinit      :      8.87s CPU      9.05s WALL (       1 calls)
     potinit      :      4.42s CPU      4.57s WALL (       1 calls)
     hinit0       :      1.06s CPU      1.07s WALL (       1 calls)

     Called by electrons:
     c_bands      :   1958.71s CPU   1985.45s WALL (      89 calls)
     sum_band     :    260.34s CPU    265.29s WALL (      89 calls)
     v_of_rho     :     68.09s CPU     69.64s WALL (      92 calls)
     newd         :     24.27s CPU     28.85s WALL (      92 calls)
     PAW_pot      :     33.15s CPU     33.36s WALL (      94 calls)
     mix_rho      :      3.77s CPU      4.09s WALL (      89 calls)
     vdW_kernel   :      3.03s CPU      3.05s WALL (       1 calls)

     Called by c_bands:
     init_us_2    :     17.90s CPU     18.07s WALL (    3680 calls)
     cegterg      :   1911.67s CPU   1937.42s WALL (    1780 calls)

     Called by *egterg:
     cdiaghg      :    288.74s CPU    294.39s WALL (   13325 calls)
     h_psi        :    980.73s CPU    997.09s WALL (   13385 calls)
     s_psi        :    128.02s CPU    128.95s WALL (   13385 calls)
     g_psi        :      3.59s CPU      3.61s WALL (   11585 calls)

     Called by h_psi:
     h_psi:calbec :    128.52s CPU    129.13s WALL (   13385 calls)
     vloc_psi     :    715.83s CPU    730.97s WALL (   13385 calls)
     add_vuspsi   :    129.64s CPU    130.23s WALL (   13385 calls)

     General routines
     calbec       :    183.78s CPU    187.12s WALL (   15445 calls)
     fft          :     45.77s CPU     46.34s WALL (    8421 calls)
     ffts         :      0.37s CPU      0.38s WALL (     362 calls)
     fftw         :    826.70s CPU    842.99s WALL ( 2248196 calls)
     interpolate  :      1.04s CPU      1.06s WALL (     184 calls)
     davcio       :      0.00s CPU      0.74s WALL (      20 calls)
 
     Parallel routines
 
     PWSCF        :  39m50.11s CPU  40m50.94s WALL

 
   This run was terminated on:  11:38:56  16Feb2022            

=------------------------------------------------------------------------------=
   JOB DONE.
=------------------------------------------------------------------------------=
