
     Program PWSCF v.6.7GPU starts on 17Feb2022 at 16:10:24 

     This program is part of the open-source Quantum ESPRESSO suite
     for quantum simulation of materials; please cite
         "P. Giannozzi et al., J. Phys.:Condens. Matter 21 395502 (2009);
         "P. Giannozzi et al., J. Phys.:Condens. Matter 29 465901 (2017);
         "P. Giannozzi et al., J. Chem. Phys. 152 154105 (2020);
          URL http://www.quantum-espresso.org", 
     in publications or presentations arising from this work. More details at
     http://www.quantum-espresso.org/quote

     Parallel version (MPI), running on    16 processors

     MPI processes distributed on     1 nodes
     R & G space division:  proc/nbgrp/npool/nimage =      16
     Reading input from /storage/coda1/p-amedford6/0/bchen380/B22/O2_B/qe_3989872.sched-torque.pace.gatech.edu/pw.inp
Warning: card &CELL ignored
Warning: card   CELL_DYNAMICS='IPI', ignored
Warning: card / ignored

     Current dimensions of program PWSCF are:
     Max number of different atomic species (ntypx) = 10
     Max number of k-points (npk) =  40000
     Max angular momentum in pseudopotentials (lmaxx) =  3
     Message from routine cell_base_init:
     DEPRECATED: use true lattice parameter, not A to a.u. conversion factor
     file O.UPF: wavefunction(s)  2P renormalized

     **************************************************************************
     Initializing libbeef V0.1.2 with the BEEF-vdW functional.
     Citation: Wellendorff et al., PRB 85, 235149 (2012).
     **************************************************************************


     IMPORTANT: XC functional enforced from input :
     Exchange-correlation= BEEF-VDW
                           (   1   4  43  14   2   0   0)
     Any further DFT definition will be discarded
     Please, verify this is what you really want


     Subspace diagonalization in iterative solution of the eigenvalue problem:
     one sub-group per band group will be used
     scalapack distributed-memory algorithm (size of sub-group:  4*  4 procs)

  @ DRIVER MODE: Connecting to 
 qe_1064200_3989872.sched-torque.pace.gatech.eduxxlmgr7g_scratch
  using UNIX socket
  @ DRIVER MODE: Message from server: STATUS
  @ DRIVER MODE: Message from server: INIT
  @ DRIVER MODE: Receiving replica           0          -1
  @ DRIVER MODE: Receiving encoded integer          25
  @ DRIVER MODE:  SCF:  T  FORCE:  T  STRESS:  F  VC:  F  ENSEMBLE:  F
  @ DRIVER MODE:  SCF:  T  FORCE:  T  STRESS:  F  VC:  F  ENSEMBLE:  F
 
     Parallelization info
     --------------------
     sticks:   dense  smooth     PW     G-vecs:    dense   smooth      PW
     Min         256     102     28                49498    12526    1868
     Max         257     103     29                49510    12535    1881
     Sum        4097    1637    459               792059   200495   30031
 
     Using Slab Decomposition
 


     bravais-lattice index     =            0
     lattice parameter (alat)  =       1.8897  a.u.
     unit-cell volume          =    6658.9804 (a.u.)^3
     number of atoms/cell      =           50
     number of atomic types    =            3
     number of electrons       =       393.00
     number of Kohn-Sham states=          206
     kinetic-energy cutoff     =      36.7493  Ry
     charge density cutoff     =     367.4932  Ry
     scf convergence threshold =      7.3E-08
     mixing beta               =       0.0500
     number of iterations used =            8  plain     mixing
     Exchange-correlation= BEEF-VDW
                           (   1   4  43  14   2   0   0)

     celldm(1)=   1.889726  celldm(2)=   0.000000  celldm(3)=   0.000000
     celldm(4)=   0.000000  celldm(5)=   0.000000  celldm(6)=   0.000000

     crystal axes: (cart. coord. in units of alat)
               a(1) = (   6.579727   0.000000   0.000000 )  
               a(2) = (  -0.000775   5.961596   0.000000 )  
               a(3) = (   0.000000   0.000000  25.155947 )  

     reciprocal axes: (cart. coord. in units 2 pi/alat)
               b(1) = (  0.151982  0.000020  0.000000 )  
               b(2) = (  0.000000  0.167740  0.000000 )  
               b(3) = (  0.000000  0.000000  0.039752 )  


     PseudoPot. # 1 for Ti read from file:
     /storage/coda1/p-amedford6/0/shared/rich_project_chbe-medford/medford-share/data/pseudos_module/espresso/esp_pseudos_old/Ti.UPF
     MD5 check sum: 88a00a6731bd790ddea75d31a80cb452
     Pseudo is Ultrasoft + core correction, Zval = 12.0
     Generated by new atomic code, or converted to UPF format
     Using radial grid of  851 points,  6 beta functions with: 
                l(1) =   0
                l(2) =   0
                l(3) =   1
                l(4) =   1
                l(5) =   2
                l(6) =   2
     Q(r) pseudized with  6 coefficients,  rinner =    1.000   1.000   1.000
                                                       1.000   1.000

     PseudoPot. # 2 for O  read from file:
     /storage/coda1/p-amedford6/0/shared/rich_project_chbe-medford/medford-share/data/pseudos_module/espresso/esp_pseudos_old/O.UPF
     MD5 check sum: 0234752ac141de4415c5fc33072bef88
     Pseudo is Projector augmented-wave + core cor, Zval =  6.0
     Generated using "atomic" code by A. Dal Corso  v.5.0.99 svn rev. 10869
     Shape of augmentation charge: BESSEL
     Using radial grid of 1095 points,  4 beta functions with: 
                l(1) =   0
                l(2) =   0
                l(3) =   1
                l(4) =   1
     Q(r) pseudized with 0 coefficients 


     PseudoPot. # 3 for B  read from file:
     /storage/coda1/p-amedford6/0/shared/rich_project_chbe-medford/medford-share/data/pseudos_module/espresso/esp_pseudos_old/B.UPF
     MD5 check sum: cc6de2960df11db49a60e589f9ebb39b
     Pseudo is Ultrasoft + core correction, Zval =  3.0
     Generated by new atomic code, or converted to UPF format
     Using radial grid of  781 points,  4 beta functions with: 
                l(1) =   0
                l(2) =   0
                l(3) =   1
                l(4) =   1
     Q(r) pseudized with  8 coefficients,  rinner =    1.100   1.100   1.100


     atomic species   valence    mass     pseudopotential
        Ti1           12.00    47.86700     Ti( 1.00)
        O1             6.00    15.99900     O ( 1.00)
        B1             3.00    10.81000     B ( 1.00)

     Starting magnetic structure 
     atomic species   magnetization
        Ti1          0.000
        O1           0.000
        B1           0.000

     No symmetry found



   Cartesian axes

     site n.     atom                  positions (alat units)
         1           Ti1 tau(   1) = (   0.0004258   2.9801865   6.0000000  )
         2           Ti1 tau(   2) = (   3.2906075   1.4906267   6.0002472  )
         3           O1  tau(   3) = (   0.0006271   0.0005054   7.9858123  )
         4           O1  tau(   4) = (   3.2906025   0.0005020   7.3038282  )
         5           O1  tau(   5) = (   4.5942328   1.4918067   9.2879030  )
         6           O1  tau(   6) = (   1.9868534   1.4903216   9.2879459  )
         7           Ti1 tau(   7) = (   3.2905683   2.9818392   9.1597947  )
         8           Ti1 tau(   8) = (   0.0009689   1.5052867   9.3302970  )
         9           O1  tau(   9) = (   3.2906494   0.0005058  11.3627918  )
        10           O1  tau(  10) = (   0.0007044   0.0001637  10.5878211  )
        11           O1  tau(  11) = (   1.2927521   1.4919162  12.6335704  )
        12           O1  tau(  12) = (   5.2884679   1.4922943  12.6332174  )
        13           Ti1 tau(  13) = (   0.0001939   2.9827895  12.7786105  )
        14           Ti1 tau(  14) = (   3.2904799   1.4915565  12.5023003  )
        15           O1  tau(  15) = (   6.5781662   0.0014340  14.6469143  )
        16           O1  tau(  16) = (   3.2923642   0.0021704  13.9645411  )
        17           O1  tau(  17) = (   4.5490263   1.5048565  16.0874665  )
        18           O1  tau(  18) = (   2.0306791   1.5042372  16.0879458  )
        19           Ti1 tau(  19) = (   3.2939611   2.9840499  15.7390525  )
        20           Ti1 tau(  20) = (   0.0126909   1.3916261  15.9325701  )
        21           O1  tau(  21) = (   3.2904802   0.0005063   4.7018136  )
        22           O1  tau(  22) = (   0.0025882   0.0099961  17.1643403  )
        23           O1  tau(  23) = (   1.3043587   1.4918075   6.0039043  )
        24           O1  tau(  24) = (   5.2767064   1.4903225   6.0039473  )
        25           Ti1 tau(  25) = (   0.0000382   5.9609847   6.0000000  )
        26           Ti1 tau(  26) = (   3.2902200   4.4714249   6.0002472  )
        27           O1  tau(  27) = (   0.0002396   2.9813036   7.9858123  )
        28           O1  tau(  28) = (   3.2902150   2.9813002   7.3038282  )
        29           O1  tau(  29) = (   4.5938453   4.4726049   9.2879030  )
        30           O1  tau(  30) = (   1.9864658   4.4711199   9.2879459  )
        31           Ti1 tau(  31) = (   3.2909982   0.0016570   9.1583503  )
        32           Ti1 tau(  32) = (   0.0005865   4.4518293   9.3323505  )
        33           O1  tau(  33) = (   3.2901705   2.9820941  11.3621854  )
        34           O1  tau(  34) = (   0.0003571   2.9798178  10.5649370  )
        35           O1  tau(  35) = (   1.2917000   4.4718951  12.6341540  )
        36           O1  tau(  36) = (   5.2887370   4.4712063  12.6338596  )
        37           Ti1 tau(  37) = (   0.0005279   0.0001836  12.5353317  )
        38           Ti1 tau(  38) = (   3.2901074   4.4699311  12.5029251  )
        39           O1  tau(  39) = (   0.0024985   2.9791231  14.7029010  )
        40           O1  tau(  40) = (   3.2912529   2.9834249  13.9468609  )
        41           O1  tau(  41) = (   4.5459453   4.4630398  16.0921333  )
        42           O1  tau(  42) = (   2.0319295   4.4631064  16.0929880  )
        43           Ti1 tau(  43) = (   3.3001824   0.0048331  15.7577049  )
        44           Ti1 tau(  44) = (   0.0129128   4.5641482  16.0234949  )
        45           O1  tau(  45) = (   3.2900926   2.9813045   4.7018136  )
        46           B1  tau(  46) = (   6.5268181   2.9856975  17.8106734  )
        47           O1  tau(  47) = (   1.3039711   4.4726057   6.0039043  )
        48           O1  tau(  48) = (   5.2763189   4.4711207   6.0039473  )
        49           O1  tau(  49) = (   6.3857867   2.8066752  19.0259722  )
        50           O1  tau(  50) = (   6.1997502   2.5773090  20.3081507  )

     number of k points=    10  Fermi-Dirac smearing, width (Ry)=  0.0007
                       cart. coord. in units 2pi/alat
        k(    1) = (   0.0000000   0.0000000   0.0000000), wk =   0.0625000
        k(    2) = (   0.0000000   0.0419351   0.0000000), wk =   0.1250000
        k(    3) = (   0.0000000  -0.0838702   0.0000000), wk =   0.0625000
        k(    4) = (   0.0379955   0.0000049   0.0000000), wk =   0.1250000
        k(    5) = (   0.0379955   0.0419400   0.0000000), wk =   0.1250000
        k(    6) = (   0.0379955  -0.0838652   0.0000000), wk =   0.1250000
        k(    7) = (   0.0379955  -0.0419301   0.0000000), wk =   0.1250000
        k(    8) = (  -0.0759910  -0.0000099   0.0000000), wk =   0.0625000
        k(    9) = (  -0.0759910   0.0419252   0.0000000), wk =   0.1250000
        k(   10) = (  -0.0759910  -0.0838800   0.0000000), wk =   0.0625000

     Dense  grid:   792059 G-vectors     FFT dimensions: (  75,  72, 300)

     Smooth grid:   200495 G-vectors     FFT dimensions: (  48,  45, 192)

     Estimated max dynamical RAM per process >     385.45 MB

     Estimated total dynamical RAM >       6.02 GB

     Check: negative core charge=   -0.000008
     Generating pointlists ...
     new r_m :   0.7393 (alat units)  1.3970 (a.u.) for type    1
     new r_m :   0.5100 (alat units)  0.9639 (a.u.) for type    2
     new r_m :   0.5100 (alat units)  0.9639 (a.u.) for type    3

     Initial potential from superposition of free atoms

     starting charge  376.99896, renormalised to  393.00000

     negative rho (up, down):  1.176E-02 1.176E-02


     %%%%%%%%%%%%%%%%%%%%%%%%%%%%%%%%%%%%%%%%%%%%%%%%%%%%%%%%%%%%%%%%%%%%%%%%
     %                                                                      %
     % You are using vdW-DF, which was implemented by the Thonhauser group. %
     % Please cite the following two papers that made this development      %
     % possible and the two reviews that describe the various versions:     %
     %                                                                      %
     %   T. Thonhauser et al., PRL 115, 136402 (2015).                      %
     %   T. Thonhauser et al., PRB 76, 125112 (2007).                       %
     %   K. Berland et al., Rep. Prog. Phys. 78, 066501 (2015).             %
     %   D.C. Langreth et al., J. Phys.: Condens. Matter 21, 084203 (2009). %
     %                                                                      %
     %                                                                      %
     % If you are calculating the stress with vdW-DF, please also cite:     %
     %                                                                      %
     %   R. Sabatini et al., J. Phys.: Condens. Matter 24, 424209 (2012).   %
     %                                                                      %
     %%%%%%%%%%%%%%%%%%%%%%%%%%%%%%%%%%%%%%%%%%%%%%%%%%%%%%%%%%%%%%%%%%%%%%%%


 
     Adding external electric field

     Computed dipole along edir(3) : 
        Dipole               -8.0322 Ry au,        -20.4159 Debye
        Dipole field         -0.0152 Ry au, 
 
        Potential amp.        1.4051 Ry
        Total length         46.3494 bohr
 
 
     Adding external electric field

     Computed dipole along edir(3) : 
        Dipole               -8.0322 Ry au,        -20.4159 Debye
        Dipole field         -0.0152 Ry au, 
 
        Potential amp.        1.4051 Ry
        Total length         46.3494 bohr
 
     Starting wfcs are  296 randomized atomic wfcs
     Checking if some PAW data can be deallocated... 
  @ DRIVER MODE: Message from server: STATUS
  @ DRIVER MODE: Message from server: POSDATA
  @ DRIVER MODE: Reading and sharing cell 
  @ DRIVER MODE: Reading and sharing positions 
  @ DRIVER MODE: Received positions 

     total cpu time spent up to now is       31.4 secs

     Self-consistent Calculation

     iteration #  1     ecut=    36.75 Ry     beta= 0.05
     Davidson diagonalization with overlap
     ethr =  1.00E-02,  avg # of iterations =  2.2

     negative rho (up, down):  1.086E-02 1.086E-02
 
     Adding external electric field

     Computed dipole along edir(3) : 
        Dipole               31.1684 Ry au,         79.2223 Debye
        Dipole field          0.0588 Ry au, 
 
        Potential amp.       -5.4524 Ry
        Total length         46.3494 bohr
 
 
     Adding external electric field

     Computed dipole along edir(3) : 
        Dipole               31.1684 Ry au,         79.2223 Debye
        Dipole field          0.0588 Ry au, 
 
        Potential amp.       -5.4524 Ry
        Total length         46.3494 bohr
 

     total cpu time spent up to now is       51.9 secs

     total energy              =   -3114.68080756 Ry
     estimated scf accuracy    <    2446.55851672 Ry

     total magnetization       =    -0.00 Bohr mag/cell
     absolute magnetization    =     0.09 Bohr mag/cell

     iteration #  2     ecut=    36.75 Ry     beta= 0.05
     Davidson diagonalization with overlap
     ethr =  1.00E-02,  avg # of iterations = 14.7

     negative rho (up, down):  1.035E-02 1.035E-02
 
     Adding external electric field

     Computed dipole along edir(3) : 
        Dipole               -3.5200 Ry au,         -8.9470 Debye
        Dipole field         -0.0066 Ry au, 
 
        Potential amp.        0.6158 Ry
        Total length         46.3494 bohr
 
 
     Adding external electric field

     Computed dipole along edir(3) : 
        Dipole               -3.5200 Ry au,         -8.9470 Debye
        Dipole field         -0.0066 Ry au, 
 
        Potential amp.        0.6158 Ry
        Total length         46.3494 bohr
 

     total cpu time spent up to now is      153.2 secs

     total energy              =   -2973.18743528 Ry
     estimated scf accuracy    <   47153.29346072 Ry

     total magnetization       =     0.02 Bohr mag/cell
     absolute magnetization    =     0.73 Bohr mag/cell

     iteration #  3     ecut=    36.75 Ry     beta= 0.05
     Davidson diagonalization with overlap
     ethr =  1.00E-02,  avg # of iterations = 14.7

     negative rho (up, down):  1.024E-02 1.024E-02
 
     Adding external electric field

     Computed dipole along edir(3) : 
        Dipole               -4.6958 Ry au,        -11.9355 Debye
        Dipole field         -0.0089 Ry au, 
 
        Potential amp.        0.8215 Ry
        Total length         46.3494 bohr
 
 
     Adding external electric field

     Computed dipole along edir(3) : 
        Dipole               -4.6958 Ry au,        -11.9355 Debye
        Dipole field         -0.0089 Ry au, 
 
        Potential amp.        0.8215 Ry
        Total length         46.3494 bohr
 

     total cpu time spent up to now is      240.9 secs

     total energy              =   -3322.50389103 Ry
     estimated scf accuracy    <    1790.54378405 Ry

     total magnetization       =     0.02 Bohr mag/cell
     absolute magnetization    =     0.43 Bohr mag/cell

     iteration #  4     ecut=    36.75 Ry     beta= 0.05
     Davidson diagonalization with overlap
     ethr =  1.00E-02,  avg # of iterations =  3.9

     negative rho (up, down):  1.017E-02 1.018E-02
 
     Adding external electric field

     Computed dipole along edir(3) : 
        Dipole               -6.6704 Ry au,        -16.9545 Debye
        Dipole field         -0.0126 Ry au, 
 
        Potential amp.        1.1669 Ry
        Total length         46.3494 bohr
 
 
     Adding external electric field

     Computed dipole along edir(3) : 
        Dipole               -6.6704 Ry au,        -16.9545 Debye
        Dipole field         -0.0126 Ry au, 
 
        Potential amp.        1.1669 Ry
        Total length         46.3494 bohr
 

     total cpu time spent up to now is      261.5 secs

     total energy              =   -3295.03018754 Ry
     estimated scf accuracy    <    1611.15614141 Ry

     total magnetization       =    -0.80 Bohr mag/cell
     absolute magnetization    =     1.32 Bohr mag/cell

     iteration #  5     ecut=    36.75 Ry     beta= 0.05
     Davidson diagonalization with overlap
     ethr =  1.00E-02,  avg # of iterations =  8.5

     negative rho (up, down):  1.013E-02 1.014E-02
 
     Adding external electric field

     Computed dipole along edir(3) : 
        Dipole               -5.5028 Ry au,        -13.9866 Debye
        Dipole field         -0.0104 Ry au, 
 
        Potential amp.        0.9626 Ry
        Total length         46.3494 bohr
 
 
     Adding external electric field

     Computed dipole along edir(3) : 
        Dipole               -5.5028 Ry au,        -13.9866 Debye
        Dipole field         -0.0104 Ry au, 
 
        Potential amp.        0.9626 Ry
        Total length         46.3494 bohr
 

     total cpu time spent up to now is      303.3 secs

     total energy              =   -3336.24218310 Ry
     estimated scf accuracy    <     139.64477902 Ry

     total magnetization       =    -0.11 Bohr mag/cell
     absolute magnetization    =     0.53 Bohr mag/cell

     iteration #  6     ecut=    36.75 Ry     beta= 0.05
     Davidson diagonalization with overlap
     ethr =  1.00E-02,  avg # of iterations =  1.1

     negative rho (up, down):  1.027E-02 1.027E-02
 
     Adding external electric field

     Computed dipole along edir(3) : 
        Dipole               -4.7461 Ry au,        -12.0634 Debye
        Dipole field         -0.0090 Ry au, 
 
        Potential amp.        0.8303 Ry
        Total length         46.3494 bohr
 
 
     Adding external electric field

     Computed dipole along edir(3) : 
        Dipole               -4.7461 Ry au,        -12.0634 Debye
        Dipole field         -0.0090 Ry au, 
 
        Potential amp.        0.8303 Ry
        Total length         46.3494 bohr
 

     total cpu time spent up to now is      322.8 secs

     total energy              =   -3335.42557269 Ry
     estimated scf accuracy    <      65.11542787 Ry

     total magnetization       =    -0.14 Bohr mag/cell
     absolute magnetization    =     0.33 Bohr mag/cell

     iteration #  7     ecut=    36.75 Ry     beta= 0.05
     Davidson diagonalization with overlap
     ethr =  1.00E-02,  avg # of iterations =  1.0

     negative rho (up, down):  1.103E-02 1.101E-02
 
     Adding external electric field

     Computed dipole along edir(3) : 
        Dipole               -1.1992 Ry au,         -3.0481 Debye
        Dipole field         -0.0023 Ry au, 
 
        Potential amp.        0.2098 Ry
        Total length         46.3494 bohr
 
 
     Adding external electric field

     Computed dipole along edir(3) : 
        Dipole               -1.1992 Ry au,         -3.0481 Debye
        Dipole field         -0.0023 Ry au, 
 
        Potential amp.        0.2098 Ry
        Total length         46.3494 bohr
 

     total cpu time spent up to now is      340.0 secs

     total energy              =   -3329.80195593 Ry
     estimated scf accuracy    <      59.84876212 Ry

     total magnetization       =    -0.17 Bohr mag/cell
     absolute magnetization    =     0.34 Bohr mag/cell

     iteration #  8     ecut=    36.75 Ry     beta= 0.05
     Davidson diagonalization with overlap
     ethr =  1.00E-02,  avg # of iterations =  5.5

     negative rho (up, down):  1.094E-02 1.093E-02
 
     Adding external electric field

     Computed dipole along edir(3) : 
        Dipole               -2.2250 Ry au,         -5.6553 Debye
        Dipole field         -0.0042 Ry au, 
 
        Potential amp.        0.3892 Ry
        Total length         46.3494 bohr
 
 
     Adding external electric field

     Computed dipole along edir(3) : 
        Dipole               -2.2250 Ry au,         -5.6553 Debye
        Dipole field         -0.0042 Ry au, 
 
        Potential amp.        0.3892 Ry
        Total length         46.3494 bohr
 

     total cpu time spent up to now is      370.8 secs

     total energy              =   -3333.81509915 Ry
     estimated scf accuracy    <       6.77520645 Ry

     total magnetization       =     0.05 Bohr mag/cell
     absolute magnetization    =     0.25 Bohr mag/cell

     iteration #  9     ecut=    36.75 Ry     beta= 0.05
     Davidson diagonalization with overlap
     ethr =  1.72E-03,  avg # of iterations =  9.8

     negative rho (up, down):  1.104E-02 1.103E-02
 
     Adding external electric field

     Computed dipole along edir(3) : 
        Dipole               -2.9575 Ry au,         -7.5171 Debye
        Dipole field         -0.0056 Ry au, 
 
        Potential amp.        0.5174 Ry
        Total length         46.3494 bohr
 
 
     Adding external electric field

     Computed dipole along edir(3) : 
        Dipole               -2.9575 Ry au,         -7.5171 Debye
        Dipole field         -0.0056 Ry au, 
 
        Potential amp.        0.5174 Ry
        Total length         46.3494 bohr
 

     total cpu time spent up to now is      404.2 secs

     total energy              =   -3333.83310254 Ry
     estimated scf accuracy    <       6.34735291 Ry

     total magnetization       =     0.12 Bohr mag/cell
     absolute magnetization    =     0.22 Bohr mag/cell

     iteration # 10     ecut=    36.75 Ry     beta= 0.05
     Davidson diagonalization with overlap
     ethr =  1.62E-03,  avg # of iterations =  1.9

     negative rho (up, down):  2.376E-02 2.365E-02
 
     Adding external electric field

     Computed dipole along edir(3) : 
        Dipole               -5.9017 Ry au,        -15.0006 Debye
        Dipole field         -0.0111 Ry au, 
 
        Potential amp.        1.0324 Ry
        Total length         46.3494 bohr
 
 
     Adding external electric field

     Computed dipole along edir(3) : 
        Dipole               -5.9017 Ry au,        -15.0006 Debye
        Dipole field         -0.0111 Ry au, 
 
        Potential amp.        1.0324 Ry
        Total length         46.3494 bohr
 

     total cpu time spent up to now is      426.8 secs

     total energy              =   -3332.44054339 Ry
     estimated scf accuracy    <       5.46531760 Ry

     total magnetization       =     0.12 Bohr mag/cell
     absolute magnetization    =     0.21 Bohr mag/cell

     iteration # 11     ecut=    36.75 Ry     beta= 0.05
     Davidson diagonalization with overlap
     ethr =  1.39E-03,  avg # of iterations = 12.4

     negative rho (up, down):  2.565E-02 2.546E-02
 
     Adding external electric field

     Computed dipole along edir(3) : 
        Dipole               -5.3527 Ry au,        -13.6052 Debye
        Dipole field         -0.0101 Ry au, 
 
        Potential amp.        0.9364 Ry
        Total length         46.3494 bohr
 
 
     Adding external electric field

     Computed dipole along edir(3) : 
        Dipole               -5.3527 Ry au,        -13.6052 Debye
        Dipole field         -0.0101 Ry au, 
 
        Potential amp.        0.9364 Ry
        Total length         46.3494 bohr
 

     total cpu time spent up to now is      458.7 secs

     total energy              =   -3336.85194439 Ry
     estimated scf accuracy    <     166.44395769 Ry

     total magnetization       =     0.42 Bohr mag/cell
     absolute magnetization    =     0.50 Bohr mag/cell

     iteration # 12     ecut=    36.75 Ry     beta= 0.05
     Davidson diagonalization with overlap
     ethr =  1.39E-03,  avg # of iterations =  4.2

     negative rho (up, down):  2.469E-02 2.449E-02
 
     Adding external electric field

     Computed dipole along edir(3) : 
        Dipole               -5.2641 Ry au,        -13.3799 Debye
        Dipole field         -0.0099 Ry au, 
 
        Potential amp.        0.9209 Ry
        Total length         46.3494 bohr
 
 
     Adding external electric field

     Computed dipole along edir(3) : 
        Dipole               -5.2641 Ry au,        -13.3799 Debye
        Dipole field         -0.0099 Ry au, 
 
        Potential amp.        0.9209 Ry
        Total length         46.3494 bohr
 

     total cpu time spent up to now is      478.7 secs

     total energy              =   -3336.70189887 Ry
     estimated scf accuracy    <      67.56624105 Ry

     total magnetization       =     0.46 Bohr mag/cell
     absolute magnetization    =     0.63 Bohr mag/cell

     iteration # 13     ecut=    36.75 Ry     beta= 0.05
     Davidson diagonalization with overlap
     ethr =  1.39E-03,  avg # of iterations =  1.1

     negative rho (up, down):  2.273E-02 2.246E-02
 
     Adding external electric field

     Computed dipole along edir(3) : 
        Dipole               -4.6138 Ry au,        -11.7270 Debye
        Dipole field         -0.0087 Ry au, 
 
        Potential amp.        0.8071 Ry
        Total length         46.3494 bohr
 
 
     Adding external electric field

     Computed dipole along edir(3) : 
        Dipole               -4.6138 Ry au,        -11.7270 Debye
        Dipole field         -0.0087 Ry au, 
 
        Potential amp.        0.8071 Ry
        Total length         46.3494 bohr
 

     total cpu time spent up to now is      499.5 secs

     total energy              =   -3335.18978483 Ry
     estimated scf accuracy    <      63.98630403 Ry

     total magnetization       =     0.45 Bohr mag/cell
     absolute magnetization    =     0.60 Bohr mag/cell

     iteration # 14     ecut=    36.75 Ry     beta= 0.05
     Davidson diagonalization with overlap
     ethr =  1.39E-03,  avg # of iterations =  6.0

     negative rho (up, down):  2.050E-02 2.021E-02
 
     Adding external electric field

     Computed dipole along edir(3) : 
        Dipole               -4.2652 Ry au,        -10.8411 Debye
        Dipole field         -0.0080 Ry au, 
 
        Potential amp.        0.7461 Ry
        Total length         46.3494 bohr
 
 
     Adding external electric field

     Computed dipole along edir(3) : 
        Dipole               -4.2652 Ry au,        -10.8411 Debye
        Dipole field         -0.0080 Ry au, 
 
        Potential amp.        0.7461 Ry
        Total length         46.3494 bohr
 

     total cpu time spent up to now is      524.8 secs

     total energy              =   -3334.66480151 Ry
     estimated scf accuracy    <      45.21581713 Ry

     total magnetization       =     0.55 Bohr mag/cell
     absolute magnetization    =     0.66 Bohr mag/cell

     iteration # 15     ecut=    36.75 Ry     beta= 0.05
     Davidson diagonalization with overlap
     ethr =  1.39E-03,  avg # of iterations =  2.4

     negative rho (up, down):  1.737E-02 1.715E-02
 
     Adding external electric field

     Computed dipole along edir(3) : 
        Dipole               -4.1083 Ry au,        -10.4424 Debye
        Dipole field         -0.0078 Ry au, 
 
        Potential amp.        0.7187 Ry
        Total length         46.3494 bohr
 
 
     Adding external electric field

     Computed dipole along edir(3) : 
        Dipole               -4.1083 Ry au,        -10.4424 Debye
        Dipole field         -0.0078 Ry au, 
 
        Potential amp.        0.7187 Ry
        Total length         46.3494 bohr
 

     total cpu time spent up to now is      560.6 secs

     total energy              =   -3333.80477084 Ry
     estimated scf accuracy    <      41.93758440 Ry

     total magnetization       =     0.56 Bohr mag/cell
     absolute magnetization    =     0.64 Bohr mag/cell

     iteration # 16     ecut=    36.75 Ry     beta= 0.05
     Davidson diagonalization with overlap
     ethr =  1.39E-03,  avg # of iterations =  7.1

     negative rho (up, down):  1.276E-02 1.262E-02
 
     Adding external electric field

     Computed dipole along edir(3) : 
        Dipole               -2.5733 Ry au,         -6.5406 Debye
        Dipole field         -0.0049 Ry au, 
 
        Potential amp.        0.4502 Ry
        Total length         46.3494 bohr
 
 
     Adding external electric field

     Computed dipole along edir(3) : 
        Dipole               -2.5733 Ry au,         -6.5406 Debye
        Dipole field         -0.0049 Ry au, 
 
        Potential amp.        0.4502 Ry
        Total length         46.3494 bohr
 

     total cpu time spent up to now is      584.4 secs

     total energy              =   -3332.36227115 Ry
     estimated scf accuracy    <      19.12415278 Ry

     total magnetization       =     0.17 Bohr mag/cell
     absolute magnetization    =     0.25 Bohr mag/cell

     iteration # 17     ecut=    36.75 Ry     beta= 0.05
     Davidson diagonalization with overlap
     ethr =  1.39E-03,  avg # of iterations =  8.2

     negative rho (up, down):  1.497E-02 1.472E-02
 
     Adding external electric field

     Computed dipole along edir(3) : 
        Dipole               -2.1759 Ry au,         -5.5305 Debye
        Dipole field         -0.0041 Ry au, 
 
        Potential amp.        0.3806 Ry
        Total length         46.3494 bohr
 
 
     Adding external electric field

     Computed dipole along edir(3) : 
        Dipole               -2.1759 Ry au,         -5.5305 Debye
        Dipole field         -0.0041 Ry au, 
 
        Potential amp.        0.3806 Ry
        Total length         46.3494 bohr
 

     total cpu time spent up to now is      610.0 secs

     total energy              =   -3333.09315294 Ry
     estimated scf accuracy    <       2.20456673 Ry

     total magnetization       =     0.20 Bohr mag/cell
     absolute magnetization    =     0.26 Bohr mag/cell

     iteration # 18     ecut=    36.75 Ry     beta= 0.05
     Davidson diagonalization with overlap
     ethr =  5.61E-04,  avg # of iterations =  3.8

     negative rho (up, down):  1.940E-02 1.904E-02
 
     Adding external electric field

     Computed dipole along edir(3) : 
        Dipole               -2.1427 Ry au,         -5.4462 Debye
        Dipole field         -0.0040 Ry au, 
 
        Potential amp.        0.3748 Ry
        Total length         46.3494 bohr
 
 
     Adding external electric field

     Computed dipole along edir(3) : 
        Dipole               -2.1427 Ry au,         -5.4462 Debye
        Dipole field         -0.0040 Ry au, 
 
        Potential amp.        0.3748 Ry
        Total length         46.3494 bohr
 

     total cpu time spent up to now is      630.4 secs

     total energy              =   -3332.93876763 Ry
     estimated scf accuracy    <       1.95261903 Ry

     total magnetization       =     0.08 Bohr mag/cell
     absolute magnetization    =     0.15 Bohr mag/cell

     iteration # 19     ecut=    36.75 Ry     beta= 0.05
     Davidson diagonalization with overlap
     ethr =  4.97E-04,  avg # of iterations =  3.5

     negative rho (up, down):  1.805E-02 1.776E-02
 
     Adding external electric field

     Computed dipole along edir(3) : 
        Dipole               -2.2591 Ry au,         -5.7421 Debye
        Dipole field         -0.0043 Ry au, 
 
        Potential amp.        0.3952 Ry
        Total length         46.3494 bohr
 
 
     Adding external electric field

     Computed dipole along edir(3) : 
        Dipole               -2.2591 Ry au,         -5.7421 Debye
        Dipole field         -0.0043 Ry au, 
 
        Potential amp.        0.3952 Ry
        Total length         46.3494 bohr
 

     total cpu time spent up to now is      651.6 secs

     total energy              =   -3332.95019521 Ry
     estimated scf accuracy    <       1.22853873 Ry

     total magnetization       =     0.11 Bohr mag/cell
     absolute magnetization    =     0.17 Bohr mag/cell

     iteration # 20     ecut=    36.75 Ry     beta= 0.05
     Davidson diagonalization with overlap
     ethr =  3.13E-04,  avg # of iterations =  3.4

     negative rho (up, down):  1.692E-02 1.671E-02
 
     Adding external electric field

     Computed dipole along edir(3) : 
        Dipole               -2.2072 Ry au,         -5.6100 Debye
        Dipole field         -0.0042 Ry au, 
 
        Potential amp.        0.3861 Ry
        Total length         46.3494 bohr
 
 
     Adding external electric field

     Computed dipole along edir(3) : 
        Dipole               -2.2072 Ry au,         -5.6100 Debye
        Dipole field         -0.0042 Ry au, 
 
        Potential amp.        0.3861 Ry
        Total length         46.3494 bohr
 

     total cpu time spent up to now is      673.1 secs

     total energy              =   -3332.85296464 Ry
     estimated scf accuracy    <       0.81507020 Ry

     total magnetization       =     0.16 Bohr mag/cell
     absolute magnetization    =     0.28 Bohr mag/cell

     iteration # 21     ecut=    36.75 Ry     beta= 0.05
     Davidson diagonalization with overlap
     c_bands:  1 eigenvalues not converged
     c_bands:  2 eigenvalues not converged
     c_bands:  4 eigenvalues not converged
     c_bands:  2 eigenvalues not converged
     c_bands:  1 eigenvalues not converged
     c_bands:  3 eigenvalues not converged
     c_bands:  2 eigenvalues not converged
     c_bands:  1 eigenvalues not converged
     c_bands:  2 eigenvalues not converged
     c_bands:  1 eigenvalues not converged
     ethr =  2.07E-04,  avg # of iterations = 18.4

     negative rho (up, down):  1.750E-02 1.727E-02
 
     Adding external electric field

     Computed dipole along edir(3) : 
        Dipole               -1.9323 Ry au,         -4.9114 Debye
        Dipole field         -0.0036 Ry au, 
 
        Potential amp.        0.3380 Ry
        Total length         46.3494 bohr
 
 
     Adding external electric field

     Computed dipole along edir(3) : 
        Dipole               -1.9323 Ry au,         -4.9114 Debye
        Dipole field         -0.0036 Ry au, 
 
        Potential amp.        0.3380 Ry
        Total length         46.3494 bohr
 

     total cpu time spent up to now is      710.3 secs

     total energy              =   -3332.94912040 Ry
     estimated scf accuracy    <       1.66795613 Ry

     total magnetization       =     0.01 Bohr mag/cell
     absolute magnetization    =     0.11 Bohr mag/cell

     iteration # 22     ecut=    36.75 Ry     beta= 0.05
     Davidson diagonalization with overlap
     ethr =  2.07E-04,  avg # of iterations =  1.9

     negative rho (up, down):  1.906E-02 1.880E-02
 
     Adding external electric field

     Computed dipole along edir(3) : 
        Dipole               -1.4327 Ry au,         -3.6417 Debye
        Dipole field         -0.0027 Ry au, 
 
        Potential amp.        0.2506 Ry
        Total length         46.3494 bohr
 
 
     Adding external electric field

     Computed dipole along edir(3) : 
        Dipole               -1.4327 Ry au,         -3.6417 Debye
        Dipole field         -0.0027 Ry au, 
 
        Potential amp.        0.2506 Ry
        Total length         46.3494 bohr
 

     total cpu time spent up to now is      728.6 secs

     total energy              =   -3332.88943220 Ry
     estimated scf accuracy    <       1.34042421 Ry

     total magnetization       =    -0.05 Bohr mag/cell
     absolute magnetization    =     0.11 Bohr mag/cell

     iteration # 23     ecut=    36.75 Ry     beta= 0.05
     Davidson diagonalization with overlap
     ethr =  2.07E-04,  avg # of iterations =  2.7

     negative rho (up, down):  1.886E-02 1.858E-02
 
     Adding external electric field

     Computed dipole along edir(3) : 
        Dipole               -1.3119 Ry au,         -3.3345 Debye
        Dipole field         -0.0025 Ry au, 
 
        Potential amp.        0.2295 Ry
        Total length         46.3494 bohr
 
 
     Adding external electric field

     Computed dipole along edir(3) : 
        Dipole               -1.3119 Ry au,         -3.3345 Debye
        Dipole field         -0.0025 Ry au, 
 
        Potential amp.        0.2295 Ry
        Total length         46.3494 bohr
 

     total cpu time spent up to now is      760.9 secs

     total energy              =   -3332.89342068 Ry
     estimated scf accuracy    <       1.81418234 Ry

     total magnetization       =    -0.15 Bohr mag/cell
     absolute magnetization    =     0.20 Bohr mag/cell

     iteration # 24     ecut=    36.75 Ry     beta= 0.05
     Davidson diagonalization with overlap
     ethr =  2.07E-04,  avg # of iterations =  1.3

     negative rho (up, down):  1.845E-02 1.820E-02
 
     Adding external electric field

     Computed dipole along edir(3) : 
        Dipole               -1.5349 Ry au,         -3.9013 Debye
        Dipole field         -0.0029 Ry au, 
 
        Potential amp.        0.2685 Ry
        Total length         46.3494 bohr
 
 
     Adding external electric field

     Computed dipole along edir(3) : 
        Dipole               -1.5349 Ry au,         -3.9013 Debye
        Dipole field         -0.0029 Ry au, 
 
        Potential amp.        0.2685 Ry
        Total length         46.3494 bohr
 

     total cpu time spent up to now is      783.9 secs

     total energy              =   -3332.86582204 Ry
     estimated scf accuracy    <       0.93713736 Ry

     total magnetization       =    -0.05 Bohr mag/cell
     absolute magnetization    =     0.10 Bohr mag/cell

     iteration # 25     ecut=    36.75 Ry     beta= 0.05
     Davidson diagonalization with overlap
     ethr =  2.07E-04,  avg # of iterations =  2.3

     negative rho (up, down):  1.747E-02 1.719E-02
 
     Adding external electric field

     Computed dipole along edir(3) : 
        Dipole               -1.3186 Ry au,         -3.3516 Debye
        Dipole field         -0.0025 Ry au, 
 
        Potential amp.        0.2307 Ry
        Total length         46.3494 bohr
 
 
     Adding external electric field

     Computed dipole along edir(3) : 
        Dipole               -1.3186 Ry au,         -3.3516 Debye
        Dipole field         -0.0025 Ry au, 
 
        Potential amp.        0.2307 Ry
        Total length         46.3494 bohr
 

     total cpu time spent up to now is      807.9 secs

     total energy              =   -3332.65765963 Ry
     estimated scf accuracy    <      11.75814482 Ry

     total magnetization       =    -0.09 Bohr mag/cell
     absolute magnetization    =     0.17 Bohr mag/cell

     iteration # 26     ecut=    36.75 Ry     beta= 0.05
     Davidson diagonalization with overlap
     c_bands:  1 eigenvalues not converged
     c_bands:  3 eigenvalues not converged
     c_bands:  1 eigenvalues not converged
     c_bands:  1 eigenvalues not converged
     ethr =  2.07E-04,  avg # of iterations = 16.6

     negative rho (up, down):  1.677E-02 1.653E-02
 
     Adding external electric field

     Computed dipole along edir(3) : 
        Dipole               -0.9364 Ry au,         -2.3802 Debye
        Dipole field         -0.0018 Ry au, 
 
        Potential amp.        0.1638 Ry
        Total length         46.3494 bohr
 
 
     Adding external electric field

     Computed dipole along edir(3) : 
        Dipole               -0.9364 Ry au,         -2.3802 Debye
        Dipole field         -0.0018 Ry au, 
 
        Potential amp.        0.1638 Ry
        Total length         46.3494 bohr
 

     total cpu time spent up to now is      845.7 secs

     total energy              =   -3332.80870932 Ry
     estimated scf accuracy    <       1.04828742 Ry

     total magnetization       =     0.02 Bohr mag/cell
     absolute magnetization    =     0.09 Bohr mag/cell

     iteration # 27     ecut=    36.75 Ry     beta= 0.05
     Davidson diagonalization with overlap
     ethr =  2.07E-04,  avg # of iterations =  5.5

     negative rho (up, down):  1.548E-02 1.531E-02
 
     Adding external electric field

     Computed dipole along edir(3) : 
        Dipole               -0.4354 Ry au,         -1.1066 Debye
        Dipole field         -0.0008 Ry au, 
 
        Potential amp.        0.0762 Ry
        Total length         46.3494 bohr
 
 
     Adding external electric field

     Computed dipole along edir(3) : 
        Dipole               -0.4354 Ry au,         -1.1066 Debye
        Dipole field         -0.0008 Ry au, 
 
        Potential amp.        0.0762 Ry
        Total length         46.3494 bohr
 

     total cpu time spent up to now is      873.5 secs

     total energy              =   -3332.83304944 Ry
     estimated scf accuracy    <       0.29903263 Ry

     total magnetization       =     0.07 Bohr mag/cell
     absolute magnetization    =     0.11 Bohr mag/cell

     iteration # 28     ecut=    36.75 Ry     beta= 0.05
     Davidson diagonalization with overlap
     c_bands:  1 eigenvalues not converged
     c_bands:  2 eigenvalues not converged
     c_bands:  1 eigenvalues not converged
     c_bands:  1 eigenvalues not converged
     ethr =  7.61E-05,  avg # of iterations = 15.9

     negative rho (up, down):  1.550E-02 1.534E-02
 
     Adding external electric field

     Computed dipole along edir(3) : 
        Dipole               -0.7225 Ry au,         -1.8363 Debye
        Dipole field         -0.0014 Ry au, 
 
        Potential amp.        0.1264 Ry
        Total length         46.3494 bohr
 
 
     Adding external electric field

     Computed dipole along edir(3) : 
        Dipole               -0.7225 Ry au,         -1.8363 Debye
        Dipole field         -0.0014 Ry au, 
 
        Potential amp.        0.1264 Ry
        Total length         46.3494 bohr
 

     total cpu time spent up to now is      923.0 secs

     total energy              =   -3332.82793819 Ry
     estimated scf accuracy    <       0.74420482 Ry

     total magnetization       =     0.12 Bohr mag/cell
     absolute magnetization    =     0.16 Bohr mag/cell

     iteration # 29     ecut=    36.75 Ry     beta= 0.05
     Davidson diagonalization with overlap
     c_bands:  2 eigenvalues not converged
     ethr =  7.61E-05,  avg # of iterations =  6.4

     negative rho (up, down):  1.451E-02 1.440E-02
 
     Adding external electric field

     Computed dipole along edir(3) : 
        Dipole               -0.6624 Ry au,         -1.6837 Debye
        Dipole field         -0.0013 Ry au, 
 
        Potential amp.        0.1159 Ry
        Total length         46.3494 bohr
 
 
     Adding external electric field

     Computed dipole along edir(3) : 
        Dipole               -0.6624 Ry au,         -1.6837 Debye
        Dipole field         -0.0013 Ry au, 
 
        Potential amp.        0.1159 Ry
        Total length         46.3494 bohr
 

     total cpu time spent up to now is      945.7 secs

     total energy              =   -3332.82990040 Ry
     estimated scf accuracy    <       0.09584076 Ry

     total magnetization       =     0.08 Bohr mag/cell
     absolute magnetization    =     0.13 Bohr mag/cell

     iteration # 30     ecut=    36.75 Ry     beta= 0.05
     Davidson diagonalization with overlap
     c_bands:  3 eigenvalues not converged
     c_bands:  1 eigenvalues not converged
     c_bands:  1 eigenvalues not converged
     ethr =  2.44E-05,  avg # of iterations =  9.3

     negative rho (up, down):  1.460E-02 1.449E-02
 
     Adding external electric field

     Computed dipole along edir(3) : 
        Dipole               -0.7641 Ry au,         -1.9421 Debye
        Dipole field         -0.0014 Ry au, 
 
        Potential amp.        0.1337 Ry
        Total length         46.3494 bohr
 
 
     Adding external electric field

     Computed dipole along edir(3) : 
        Dipole               -0.7641 Ry au,         -1.9421 Debye
        Dipole field         -0.0014 Ry au, 
 
        Potential amp.        0.1337 Ry
        Total length         46.3494 bohr
 

     total cpu time spent up to now is      972.4 secs

     total energy              =   -3332.83355303 Ry
     estimated scf accuracy    <       0.27199911 Ry

     total magnetization       =     0.16 Bohr mag/cell
     absolute magnetization    =     0.20 Bohr mag/cell

     iteration # 31     ecut=    36.75 Ry     beta= 0.05
     Davidson diagonalization with overlap
     c_bands:  2 eigenvalues not converged
     c_bands:  5 eigenvalues not converged
     c_bands:  2 eigenvalues not converged
     c_bands:  3 eigenvalues not converged
     c_bands:  1 eigenvalues not converged
     c_bands:  4 eigenvalues not converged
     c_bands:  2 eigenvalues not converged
     ethr =  2.44E-05,  avg # of iterations = 12.1

     negative rho (up, down):  1.409E-02 1.399E-02
 
     Adding external electric field

     Computed dipole along edir(3) : 
        Dipole               -0.6532 Ry au,         -1.6602 Debye
        Dipole field         -0.0012 Ry au, 
 
        Potential amp.        0.1143 Ry
        Total length         46.3494 bohr
 
 
     Adding external electric field

     Computed dipole along edir(3) : 
        Dipole               -0.6532 Ry au,         -1.6602 Debye
        Dipole field         -0.0012 Ry au, 
 
        Potential amp.        0.1143 Ry
        Total length         46.3494 bohr
 

     total cpu time spent up to now is     1016.8 secs

     total energy              =   -3332.83077688 Ry
     estimated scf accuracy    <       0.10114971 Ry

     total magnetization       =     0.02 Bohr mag/cell
     absolute magnetization    =     0.09 Bohr mag/cell

     iteration # 32     ecut=    36.75 Ry     beta= 0.05
     Davidson diagonalization with overlap
     c_bands:  1 eigenvalues not converged
     c_bands:  2 eigenvalues not converged
     c_bands:  1 eigenvalues not converged
     ethr =  2.44E-05,  avg # of iterations =  8.6

     negative rho (up, down):  1.363E-02 1.354E-02
 
     Adding external electric field

     Computed dipole along edir(3) : 
        Dipole               -0.6115 Ry au,         -1.5543 Debye
        Dipole field         -0.0012 Ry au, 
 
        Potential amp.        0.1070 Ry
        Total length         46.3494 bohr
 
 
     Adding external electric field

     Computed dipole along edir(3) : 
        Dipole               -0.6115 Ry au,         -1.5543 Debye
        Dipole field         -0.0012 Ry au, 
 
        Potential amp.        0.1070 Ry
        Total length         46.3494 bohr
 

     total cpu time spent up to now is     1043.4 secs

     total energy              =   -3332.84389959 Ry
     estimated scf accuracy    <       0.34789980 Ry

     total magnetization       =     0.14 Bohr mag/cell
     absolute magnetization    =     0.17 Bohr mag/cell

     iteration # 33     ecut=    36.75 Ry     beta= 0.05
     Davidson diagonalization with overlap
     c_bands:  3 eigenvalues not converged
     c_bands:  1 eigenvalues not converged
     c_bands:  3 eigenvalues not converged
     ethr =  2.44E-05,  avg # of iterations =  9.1

     negative rho (up, down):  1.322E-02 1.315E-02
 
     Adding external electric field

     Computed dipole along edir(3) : 
        Dipole               -0.6856 Ry au,         -1.7427 Debye
        Dipole field         -0.0013 Ry au, 
 
        Potential amp.        0.1199 Ry
        Total length         46.3494 bohr
 
 
     Adding external electric field

     Computed dipole along edir(3) : 
        Dipole               -0.6856 Ry au,         -1.7427 Debye
        Dipole field         -0.0013 Ry au, 
 
        Potential amp.        0.1199 Ry
        Total length         46.3494 bohr
 

     total cpu time spent up to now is     1070.8 secs

     total energy              =   -3332.83460347 Ry
     estimated scf accuracy    <       0.33830063 Ry

     total magnetization       =     0.10 Bohr mag/cell
     absolute magnetization    =     0.13 Bohr mag/cell

     iteration # 34     ecut=    36.75 Ry     beta= 0.05
     Davidson diagonalization with overlap
     ethr =  2.44E-05,  avg # of iterations =  2.8

     negative rho (up, down):  1.271E-02 1.266E-02
 
     Adding external electric field

     Computed dipole along edir(3) : 
        Dipole               -0.6034 Ry au,         -1.5337 Debye
        Dipole field         -0.0011 Ry au, 
 
        Potential amp.        0.1056 Ry
        Total length         46.3494 bohr
 
 
     Adding external electric field

     Computed dipole along edir(3) : 
        Dipole               -0.6034 Ry au,         -1.5337 Debye
        Dipole field         -0.0011 Ry au, 
 
        Potential amp.        0.1056 Ry
        Total length         46.3494 bohr
 

     total cpu time spent up to now is     1096.2 secs

     total energy              =   -3332.83610383 Ry
     estimated scf accuracy    <       0.08292008 Ry

     total magnetization       =     0.09 Bohr mag/cell
     absolute magnetization    =     0.12 Bohr mag/cell

     iteration # 35     ecut=    36.75 Ry     beta= 0.05
     Davidson diagonalization with overlap
     ethr =  2.11E-05,  avg # of iterations =  2.5

     negative rho (up, down):  1.217E-02 1.216E-02
 
     Adding external electric field

     Computed dipole along edir(3) : 
        Dipole               -0.5683 Ry au,         -1.4445 Debye
        Dipole field         -0.0011 Ry au, 
 
        Potential amp.        0.0994 Ry
        Total length         46.3494 bohr
 
 
     Adding external electric field

     Computed dipole along edir(3) : 
        Dipole               -0.5683 Ry au,         -1.4445 Debye
        Dipole field         -0.0011 Ry au, 
 
        Potential amp.        0.0994 Ry
        Total length         46.3494 bohr
 

     total cpu time spent up to now is     1115.0 secs

     total energy              =   -3332.83651892 Ry
     estimated scf accuracy    <       0.02627373 Ry

     total magnetization       =     0.04 Bohr mag/cell
     absolute magnetization    =     0.08 Bohr mag/cell

     iteration # 36     ecut=    36.75 Ry     beta= 0.05
     Davidson diagonalization with overlap
     c_bands:  2 eigenvalues not converged
     c_bands:  3 eigenvalues not converged
     c_bands:  1 eigenvalues not converged
     c_bands:  1 eigenvalues not converged
     c_bands:  1 eigenvalues not converged
     c_bands:  1 eigenvalues not converged
     c_bands:  1 eigenvalues not converged
     c_bands:  1 eigenvalues not converged
     c_bands:  2 eigenvalues not converged
     c_bands:  1 eigenvalues not converged
     c_bands:  1 eigenvalues not converged
     c_bands:  1 eigenvalues not converged
     ethr =  6.69E-06,  avg # of iterations = 16.8

     negative rho (up, down):  1.171E-02 1.174E-02
 
     Adding external electric field

     Computed dipole along edir(3) : 
        Dipole               -0.5512 Ry au,         -1.4010 Debye
        Dipole field         -0.0010 Ry au, 
 
        Potential amp.        0.0964 Ry
        Total length         46.3494 bohr
 
 
     Adding external electric field

     Computed dipole along edir(3) : 
        Dipole               -0.5512 Ry au,         -1.4010 Debye
        Dipole field         -0.0010 Ry au, 
 
        Potential amp.        0.0964 Ry
        Total length         46.3494 bohr
 

     total cpu time spent up to now is     1145.6 secs

     total energy              =   -3332.83846495 Ry
     estimated scf accuracy    <       0.03138393 Ry

     total magnetization       =     0.06 Bohr mag/cell
     absolute magnetization    =     0.09 Bohr mag/cell

     iteration # 37     ecut=    36.75 Ry     beta= 0.05
     Davidson diagonalization with overlap
     c_bands:  1 eigenvalues not converged
     c_bands:  1 eigenvalues not converged
     c_bands:  1 eigenvalues not converged
     c_bands:  1 eigenvalues not converged
     c_bands:  1 eigenvalues not converged
     c_bands:  1 eigenvalues not converged
     ethr =  6.69E-06,  avg # of iterations = 14.8

     negative rho (up, down):  1.149E-02 1.153E-02
 
     Adding external electric field

     Computed dipole along edir(3) : 
        Dipole               -0.5605 Ry au,         -1.4245 Debye
        Dipole field         -0.0011 Ry au, 
 
        Potential amp.        0.0980 Ry
        Total length         46.3494 bohr
 
 
     Adding external electric field

     Computed dipole along edir(3) : 
        Dipole               -0.5605 Ry au,         -1.4245 Debye
        Dipole field         -0.0011 Ry au, 
 
        Potential amp.        0.0980 Ry
        Total length         46.3494 bohr
 

     total cpu time spent up to now is     1174.8 secs

     total energy              =   -3332.84076339 Ry
     estimated scf accuracy    <       0.30243733 Ry

     total magnetization       =     0.05 Bohr mag/cell
     absolute magnetization    =     0.09 Bohr mag/cell

     iteration # 38     ecut=    36.75 Ry     beta= 0.05
     Davidson diagonalization with overlap
     ethr =  6.69E-06,  avg # of iterations =  2.7

     negative rho (up, down):  1.101E-02 1.106E-02
 
     Adding external electric field

     Computed dipole along edir(3) : 
        Dipole               -0.6240 Ry au,         -1.5861 Debye
        Dipole field         -0.0012 Ry au, 
 
        Potential amp.        0.1092 Ry
        Total length         46.3494 bohr
 
 
     Adding external electric field

     Computed dipole along edir(3) : 
        Dipole               -0.6240 Ry au,         -1.5861 Debye
        Dipole field         -0.0012 Ry au, 
 
        Potential amp.        0.1092 Ry
        Total length         46.3494 bohr
 

     total cpu time spent up to now is     1209.2 secs

     total energy              =   -3332.83934521 Ry
     estimated scf accuracy    <       0.24099448 Ry

     total magnetization       =     0.04 Bohr mag/cell
     absolute magnetization    =     0.08 Bohr mag/cell

     iteration # 39     ecut=    36.75 Ry     beta= 0.05
     Davidson diagonalization with overlap
     ethr =  6.69E-06,  avg # of iterations =  3.9

     negative rho (up, down):  1.083E-02 1.089E-02
 
     Adding external electric field

     Computed dipole along edir(3) : 
        Dipole               -0.5900 Ry au,         -1.4996 Debye
        Dipole field         -0.0011 Ry au, 
 
        Potential amp.        0.1032 Ry
        Total length         46.3494 bohr
 
 
     Adding external electric field

     Computed dipole along edir(3) : 
        Dipole               -0.5900 Ry au,         -1.4996 Debye
        Dipole field         -0.0011 Ry au, 
 
        Potential amp.        0.1032 Ry
        Total length         46.3494 bohr
 

     total cpu time spent up to now is     1233.3 secs

     total energy              =   -3332.83394518 Ry
     estimated scf accuracy    <       0.21304316 Ry

     total magnetization       =     0.03 Bohr mag/cell
     absolute magnetization    =     0.07 Bohr mag/cell

     iteration # 40     ecut=    36.75 Ry     beta= 0.05
     Davidson diagonalization with overlap
     c_bands:  1 eigenvalues not converged
     ethr =  6.69E-06,  avg # of iterations =  9.3

     negative rho (up, down):  1.071E-02 1.078E-02
 
     Adding external electric field

     Computed dipole along edir(3) : 
        Dipole               -0.4979 Ry au,         -1.2655 Debye
        Dipole field         -0.0009 Ry au, 
 
        Potential amp.        0.0871 Ry
        Total length         46.3494 bohr
 
 
     Adding external electric field

     Computed dipole along edir(3) : 
        Dipole               -0.4979 Ry au,         -1.2655 Debye
        Dipole field         -0.0009 Ry au, 
 
        Potential amp.        0.0871 Ry
        Total length         46.3494 bohr
 

     total cpu time spent up to now is     1272.4 secs

     total energy              =   -3332.83423341 Ry
     estimated scf accuracy    <       0.03689507 Ry

     total magnetization       =     0.05 Bohr mag/cell
     absolute magnetization    =     0.08 Bohr mag/cell

     iteration # 41     ecut=    36.75 Ry     beta= 0.05
     Davidson diagonalization with overlap
     c_bands:  1 eigenvalues not converged
     c_bands:  3 eigenvalues not converged
     c_bands:  1 eigenvalues not converged
     c_bands:  1 eigenvalues not converged
     c_bands:  1 eigenvalues not converged
     c_bands:  3 eigenvalues not converged
     c_bands:  1 eigenvalues not converged
     c_bands:  1 eigenvalues not converged
     c_bands:  1 eigenvalues not converged
     ethr =  6.69E-06,  avg # of iterations = 17.4

     negative rho (up, down):  1.079E-02 1.086E-02
 
     Adding external electric field

     Computed dipole along edir(3) : 
        Dipole               -0.5022 Ry au,         -1.2763 Debye
        Dipole field         -0.0009 Ry au, 
 
        Potential amp.        0.0878 Ry
        Total length         46.3494 bohr
 
 
     Adding external electric field

     Computed dipole along edir(3) : 
        Dipole               -0.5022 Ry au,         -1.2763 Debye
        Dipole field         -0.0009 Ry au, 
 
        Potential amp.        0.0878 Ry
        Total length         46.3494 bohr
 

     total cpu time spent up to now is     1302.3 secs

     total energy              =   -3332.83551387 Ry
     estimated scf accuracy    <       0.07509351 Ry

     total magnetization       =     0.08 Bohr mag/cell
     absolute magnetization    =     0.11 Bohr mag/cell

     iteration # 42     ecut=    36.75 Ry     beta= 0.05
     Davidson diagonalization with overlap
     ethr =  6.69E-06,  avg # of iterations =  4.7

     negative rho (up, down):  1.099E-02 1.106E-02
 
     Adding external electric field

     Computed dipole along edir(3) : 
        Dipole               -0.4902 Ry au,         -1.2460 Debye
        Dipole field         -0.0009 Ry au, 
 
        Potential amp.        0.0858 Ry
        Total length         46.3494 bohr
 
 
     Adding external electric field

     Computed dipole along edir(3) : 
        Dipole               -0.4902 Ry au,         -1.2460 Debye
        Dipole field         -0.0009 Ry au, 
 
        Potential amp.        0.0858 Ry
        Total length         46.3494 bohr
 

     total cpu time spent up to now is     1322.2 secs

     total energy              =   -3332.83539548 Ry
     estimated scf accuracy    <       0.01399838 Ry

     total magnetization       =     0.08 Bohr mag/cell
     absolute magnetization    =     0.11 Bohr mag/cell

     iteration # 43     ecut=    36.75 Ry     beta= 0.05
     Davidson diagonalization with overlap
     c_bands:  1 eigenvalues not converged
     c_bands:  2 eigenvalues not converged
     c_bands:  1 eigenvalues not converged
     c_bands:  2 eigenvalues not converged
     c_bands:  1 eigenvalues not converged
     ethr =  3.56E-06,  avg # of iterations = 13.9

     negative rho (up, down):  1.084E-02 1.092E-02
 
     Adding external electric field

     Computed dipole along edir(3) : 
        Dipole               -0.4809 Ry au,         -1.2224 Debye
        Dipole field         -0.0009 Ry au, 
 
        Potential amp.        0.0841 Ry
        Total length         46.3494 bohr
 
 
     Adding external electric field

     Computed dipole along edir(3) : 
        Dipole               -0.4809 Ry au,         -1.2224 Debye
        Dipole field         -0.0009 Ry au, 
 
        Potential amp.        0.0841 Ry
        Total length         46.3494 bohr
 

     total cpu time spent up to now is     1350.5 secs

     total energy              =   -3332.83561802 Ry
     estimated scf accuracy    <       0.01586472 Ry

     total magnetization       =     0.07 Bohr mag/cell
     absolute magnetization    =     0.10 Bohr mag/cell

     iteration # 44     ecut=    36.75 Ry     beta= 0.05
     Davidson diagonalization with overlap
     ethr =  3.56E-06,  avg # of iterations =  3.5

     negative rho (up, down):  1.080E-02 1.088E-02
 
     Adding external electric field

     Computed dipole along edir(3) : 
        Dipole               -0.4774 Ry au,         -1.2135 Debye
        Dipole field         -0.0009 Ry au, 
 
        Potential amp.        0.0835 Ry
        Total length         46.3494 bohr
 
 
     Adding external electric field

     Computed dipole along edir(3) : 
        Dipole               -0.4774 Ry au,         -1.2135 Debye
        Dipole field         -0.0009 Ry au, 
 
        Potential amp.        0.0835 Ry
        Total length         46.3494 bohr
 

     total cpu time spent up to now is     1374.6 secs

     total energy              =   -3332.83571813 Ry
     estimated scf accuracy    <       0.00188339 Ry

     total magnetization       =     0.10 Bohr mag/cell
     absolute magnetization    =     0.12 Bohr mag/cell

     iteration # 45     ecut=    36.75 Ry     beta= 0.05
     Davidson diagonalization with overlap
     ethr =  4.79E-07,  avg # of iterations =  5.8

     negative rho (up, down):  1.077E-02 1.084E-02
 
     Adding external electric field

     Computed dipole along edir(3) : 
        Dipole               -0.4843 Ry au,         -1.2309 Debye
        Dipole field         -0.0009 Ry au, 
 
        Potential amp.        0.0847 Ry
        Total length         46.3494 bohr
 
 
     Adding external electric field

     Computed dipole along edir(3) : 
        Dipole               -0.4843 Ry au,         -1.2309 Debye
        Dipole field         -0.0009 Ry au, 
 
        Potential amp.        0.0847 Ry
        Total length         46.3494 bohr
 

     total cpu time spent up to now is     1403.7 secs

     total energy              =   -3332.83575468 Ry
     estimated scf accuracy    <       0.00094195 Ry

     total magnetization       =     0.10 Bohr mag/cell
     absolute magnetization    =     0.13 Bohr mag/cell

     iteration # 46     ecut=    36.75 Ry     beta= 0.05
     Davidson diagonalization with overlap
     ethr =  2.40E-07,  avg # of iterations =  3.6

     negative rho (up, down):  1.081E-02 1.090E-02
 
     Adding external electric field

     Computed dipole along edir(3) : 
        Dipole               -0.4933 Ry au,         -1.2539 Debye
        Dipole field         -0.0009 Ry au, 
 
        Potential amp.        0.0863 Ry
        Total length         46.3494 bohr
 
 
     Adding external electric field

     Computed dipole along edir(3) : 
        Dipole               -0.4933 Ry au,         -1.2539 Debye
        Dipole field         -0.0009 Ry au, 
 
        Potential amp.        0.0863 Ry
        Total length         46.3494 bohr
 

     total cpu time spent up to now is     1440.9 secs

     total energy              =   -3332.83574506 Ry
     estimated scf accuracy    <       0.00106355 Ry

     total magnetization       =     0.10 Bohr mag/cell
     absolute magnetization    =     0.13 Bohr mag/cell

     iteration # 47     ecut=    36.75 Ry     beta= 0.05
     Davidson diagonalization with overlap
     ethr =  2.40E-07,  avg # of iterations =  6.7

     negative rho (up, down):  1.100E-02 1.109E-02
 
     Adding external electric field

     Computed dipole along edir(3) : 
        Dipole               -0.4746 Ry au,         -1.2063 Debye
        Dipole field         -0.0009 Ry au, 
 
        Potential amp.        0.0830 Ry
        Total length         46.3494 bohr
 
 
     Adding external electric field

     Computed dipole along edir(3) : 
        Dipole               -0.4746 Ry au,         -1.2063 Debye
        Dipole field         -0.0009 Ry au, 
 
        Potential amp.        0.0830 Ry
        Total length         46.3494 bohr
 

     total cpu time spent up to now is     1485.3 secs

     total energy              =   -3332.83579508 Ry
     estimated scf accuracy    <       0.00129966 Ry

     total magnetization       =     0.11 Bohr mag/cell
     absolute magnetization    =     0.14 Bohr mag/cell

     iteration # 48     ecut=    36.75 Ry     beta= 0.05
     Davidson diagonalization with overlap
     ethr =  2.40E-07,  avg # of iterations =  3.6

     negative rho (up, down):  1.113E-02 1.123E-02
 
     Adding external electric field

     Computed dipole along edir(3) : 
        Dipole               -0.4630 Ry au,         -1.1769 Debye
        Dipole field         -0.0009 Ry au, 
 
        Potential amp.        0.0810 Ry
        Total length         46.3494 bohr
 
 
     Adding external electric field

     Computed dipole along edir(3) : 
        Dipole               -0.4630 Ry au,         -1.1769 Debye
        Dipole field         -0.0009 Ry au, 
 
        Potential amp.        0.0810 Ry
        Total length         46.3494 bohr
 

     total cpu time spent up to now is     1504.7 secs

     total energy              =   -3332.83581207 Ry
     estimated scf accuracy    <       0.00051197 Ry

     total magnetization       =     0.13 Bohr mag/cell
     absolute magnetization    =     0.16 Bohr mag/cell

     iteration # 49     ecut=    36.75 Ry     beta= 0.05
     Davidson diagonalization with overlap
     ethr =  1.30E-07,  avg # of iterations =  6.0

     negative rho (up, down):  1.098E-02 1.109E-02
 
     Adding external electric field

     Computed dipole along edir(3) : 
        Dipole               -0.4734 Ry au,         -1.2033 Debye
        Dipole field         -0.0009 Ry au, 
 
        Potential amp.        0.0828 Ry
        Total length         46.3494 bohr
 
 
     Adding external electric field

     Computed dipole along edir(3) : 
        Dipole               -0.4734 Ry au,         -1.2033 Debye
        Dipole field         -0.0009 Ry au, 
 
        Potential amp.        0.0828 Ry
        Total length         46.3494 bohr
 

     total cpu time spent up to now is     1526.6 secs

     total energy              =   -3332.83581337 Ry
     estimated scf accuracy    <       0.00018559 Ry

     total magnetization       =     0.13 Bohr mag/cell
     absolute magnetization    =     0.16 Bohr mag/cell

     iteration # 50     ecut=    36.75 Ry     beta= 0.05
     Davidson diagonalization with overlap
     ethr =  4.72E-08,  avg # of iterations =  4.2

     negative rho (up, down):  1.102E-02 1.114E-02
 
     Adding external electric field

     Computed dipole along edir(3) : 
        Dipole               -0.4718 Ry au,         -1.1993 Debye
        Dipole field         -0.0009 Ry au, 
 
        Potential amp.        0.0825 Ry
        Total length         46.3494 bohr
 
 
     Adding external electric field

     Computed dipole along edir(3) : 
        Dipole               -0.4718 Ry au,         -1.1993 Debye
        Dipole field         -0.0009 Ry au, 
 
        Potential amp.        0.0825 Ry
        Total length         46.3494 bohr
 

     total cpu time spent up to now is     1567.1 secs

     total energy              =   -3332.83583251 Ry
     estimated scf accuracy    <       0.00014833 Ry

     total magnetization       =     0.15 Bohr mag/cell
     absolute magnetization    =     0.18 Bohr mag/cell

     iteration # 51     ecut=    36.75 Ry     beta= 0.05
     Davidson diagonalization with overlap
     ethr =  3.77E-08,  avg # of iterations =  5.8

     negative rho (up, down):  1.095E-02 1.108E-02
 
     Adding external electric field

     Computed dipole along edir(3) : 
        Dipole               -0.4772 Ry au,         -1.2130 Debye
        Dipole field         -0.0009 Ry au, 
 
        Potential amp.        0.0835 Ry
        Total length         46.3494 bohr
 
 
     Adding external electric field

     Computed dipole along edir(3) : 
        Dipole               -0.4772 Ry au,         -1.2130 Debye
        Dipole field         -0.0009 Ry au, 
 
        Potential amp.        0.0835 Ry
        Total length         46.3494 bohr
 

     total cpu time spent up to now is     1595.5 secs

     total energy              =   -3332.83584043 Ry
     estimated scf accuracy    <       0.00013805 Ry

     total magnetization       =     0.17 Bohr mag/cell
     absolute magnetization    =     0.20 Bohr mag/cell

     iteration # 52     ecut=    36.75 Ry     beta= 0.05
     Davidson diagonalization with overlap
     ethr =  3.51E-08,  avg # of iterations =  5.5

     negative rho (up, down):  1.080E-02 1.093E-02
 
     Adding external electric field

     Computed dipole along edir(3) : 
        Dipole               -0.4816 Ry au,         -1.2241 Debye
        Dipole field         -0.0009 Ry au, 
 
        Potential amp.        0.0842 Ry
        Total length         46.3494 bohr
 
 
     Adding external electric field

     Computed dipole along edir(3) : 
        Dipole               -0.4816 Ry au,         -1.2241 Debye
        Dipole field         -0.0009 Ry au, 
 
        Potential amp.        0.0842 Ry
        Total length         46.3494 bohr
 

     total cpu time spent up to now is     1616.7 secs

     total energy              =   -3332.83585376 Ry
     estimated scf accuracy    <       0.00004469 Ry

     total magnetization       =     0.19 Bohr mag/cell
     absolute magnetization    =     0.22 Bohr mag/cell

     iteration # 53     ecut=    36.75 Ry     beta= 0.05
     Davidson diagonalization with overlap
     ethr =  1.14E-08,  avg # of iterations =  5.0

     negative rho (up, down):  1.077E-02 1.092E-02
 
     Adding external electric field

     Computed dipole along edir(3) : 
        Dipole               -0.4808 Ry au,         -1.2222 Debye
        Dipole field         -0.0009 Ry au, 
 
        Potential amp.        0.0841 Ry
        Total length         46.3494 bohr
 
 
     Adding external electric field

     Computed dipole along edir(3) : 
        Dipole               -0.4808 Ry au,         -1.2222 Debye
        Dipole field         -0.0009 Ry au, 
 
        Potential amp.        0.0841 Ry
        Total length         46.3494 bohr
 

     total cpu time spent up to now is     1638.1 secs

     total energy              =   -3332.83586417 Ry
     estimated scf accuracy    <       0.00003552 Ry

     total magnetization       =     0.20 Bohr mag/cell
     absolute magnetization    =     0.24 Bohr mag/cell

     iteration # 54     ecut=    36.75 Ry     beta= 0.05
     Davidson diagonalization with overlap
     ethr =  9.04E-09,  avg # of iterations =  2.2

     negative rho (up, down):  1.076E-02 1.091E-02
 
     Adding external electric field

     Computed dipole along edir(3) : 
        Dipole               -0.4801 Ry au,         -1.2204 Debye
        Dipole field         -0.0009 Ry au, 
 
        Potential amp.        0.0840 Ry
        Total length         46.3494 bohr
 
 
     Adding external electric field

     Computed dipole along edir(3) : 
        Dipole               -0.4801 Ry au,         -1.2204 Debye
        Dipole field         -0.0009 Ry au, 
 
        Potential amp.        0.0840 Ry
        Total length         46.3494 bohr
 

     total cpu time spent up to now is     1657.5 secs

     total energy              =   -3332.83587135 Ry
     estimated scf accuracy    <       0.00003425 Ry

     total magnetization       =     0.22 Bohr mag/cell
     absolute magnetization    =     0.25 Bohr mag/cell

     iteration # 55     ecut=    36.75 Ry     beta= 0.05
     Davidson diagonalization with overlap
     ethr =  8.71E-09,  avg # of iterations =  1.6

     negative rho (up, down):  1.075E-02 1.090E-02
 
     Adding external electric field

     Computed dipole along edir(3) : 
        Dipole               -0.4805 Ry au,         -1.2214 Debye
        Dipole field         -0.0009 Ry au, 
 
        Potential amp.        0.0841 Ry
        Total length         46.3494 bohr
 
 
     Adding external electric field

     Computed dipole along edir(3) : 
        Dipole               -0.4805 Ry au,         -1.2214 Debye
        Dipole field         -0.0009 Ry au, 
 
        Potential amp.        0.0841 Ry
        Total length         46.3494 bohr
 

     total cpu time spent up to now is     1676.7 secs

     total energy              =   -3332.83587178 Ry
     estimated scf accuracy    <       0.00003443 Ry

     total magnetization       =     0.22 Bohr mag/cell
     absolute magnetization    =     0.26 Bohr mag/cell

     iteration # 56     ecut=    36.75 Ry     beta= 0.05
     Davidson diagonalization with overlap
     ethr =  8.71E-09,  avg # of iterations =  1.0

     negative rho (up, down):  1.073E-02 1.088E-02
 
     Adding external electric field

     Computed dipole along edir(3) : 
        Dipole               -0.4789 Ry au,         -1.2171 Debye
        Dipole field         -0.0009 Ry au, 
 
        Potential amp.        0.0838 Ry
        Total length         46.3494 bohr
 
 
     Adding external electric field

     Computed dipole along edir(3) : 
        Dipole               -0.4789 Ry au,         -1.2171 Debye
        Dipole field         -0.0009 Ry au, 
 
        Potential amp.        0.0838 Ry
        Total length         46.3494 bohr
 

     total cpu time spent up to now is     1719.5 secs

     total energy              =   -3332.83588003 Ry
     estimated scf accuracy    <       0.00003449 Ry

     total magnetization       =     0.22 Bohr mag/cell
     absolute magnetization    =     0.26 Bohr mag/cell

     iteration # 57     ecut=    36.75 Ry     beta= 0.05
     Davidson diagonalization with overlap
     ethr =  8.71E-09,  avg # of iterations =  5.7

     negative rho (up, down):  1.072E-02 1.085E-02
 
     Adding external electric field

     Computed dipole along edir(3) : 
        Dipole               -0.4821 Ry au,         -1.2254 Debye
        Dipole field         -0.0009 Ry au, 
 
        Potential amp.        0.0843 Ry
        Total length         46.3494 bohr
 
 
     Adding external electric field

     Computed dipole along edir(3) : 
        Dipole               -0.4821 Ry au,         -1.2254 Debye
        Dipole field         -0.0009 Ry au, 
 
        Potential amp.        0.0843 Ry
        Total length         46.3494 bohr
 

     total cpu time spent up to now is     1741.0 secs

     total energy              =   -3332.83586200 Ry
     estimated scf accuracy    <       0.00004475 Ry

     total magnetization       =     0.23 Bohr mag/cell
     absolute magnetization    =     0.27 Bohr mag/cell

     iteration # 58     ecut=    36.75 Ry     beta= 0.05
     Davidson diagonalization with overlap
     ethr =  8.71E-09,  avg # of iterations =  2.1

     negative rho (up, down):  1.076E-02 1.088E-02
 
     Adding external electric field

     Computed dipole along edir(3) : 
        Dipole               -0.4788 Ry au,         -1.2170 Debye
        Dipole field         -0.0009 Ry au, 
 
        Potential amp.        0.0838 Ry
        Total length         46.3494 bohr
 
 
     Adding external electric field

     Computed dipole along edir(3) : 
        Dipole               -0.4788 Ry au,         -1.2170 Debye
        Dipole field         -0.0009 Ry au, 
 
        Potential amp.        0.0838 Ry
        Total length         46.3494 bohr
 

     total cpu time spent up to now is     1759.4 secs

     total energy              =   -3332.83585778 Ry
     estimated scf accuracy    <       0.00005257 Ry

     total magnetization       =     0.21 Bohr mag/cell
     absolute magnetization    =     0.24 Bohr mag/cell

     iteration # 59     ecut=    36.75 Ry     beta= 0.05
     Davidson diagonalization with overlap
     ethr =  8.71E-09,  avg # of iterations =  1.5

     negative rho (up, down):  1.077E-02 1.090E-02
 
     Adding external electric field

     Computed dipole along edir(3) : 
        Dipole               -0.4794 Ry au,         -1.2186 Debye
        Dipole field         -0.0009 Ry au, 
 
        Potential amp.        0.0839 Ry
        Total length         46.3494 bohr
 
 
     Adding external electric field

     Computed dipole along edir(3) : 
        Dipole               -0.4794 Ry au,         -1.2186 Debye
        Dipole field         -0.0009 Ry au, 
 
        Potential amp.        0.0839 Ry
        Total length         46.3494 bohr
 

     total cpu time spent up to now is     1800.7 secs

     total energy              =   -3332.83586609 Ry
     estimated scf accuracy    <       0.00005527 Ry

     total magnetization       =     0.19 Bohr mag/cell
     absolute magnetization    =     0.23 Bohr mag/cell

     iteration # 60     ecut=    36.75 Ry     beta= 0.05
     Davidson diagonalization with overlap
     ethr =  8.71E-09,  avg # of iterations =  1.0

     negative rho (up, down):  1.075E-02 1.087E-02
 
     Adding external electric field

     Computed dipole along edir(3) : 
        Dipole               -0.4787 Ry au,         -1.2166 Debye
        Dipole field         -0.0009 Ry au, 
 
        Potential amp.        0.0837 Ry
        Total length         46.3494 bohr
 
 
     Adding external electric field

     Computed dipole along edir(3) : 
        Dipole               -0.4787 Ry au,         -1.2166 Debye
        Dipole field         -0.0009 Ry au, 
 
        Potential amp.        0.0837 Ry
        Total length         46.3494 bohr
 

     total cpu time spent up to now is     1820.2 secs

     total energy              =   -3332.83586053 Ry
     estimated scf accuracy    <       0.00004766 Ry

     total magnetization       =     0.21 Bohr mag/cell
     absolute magnetization    =     0.24 Bohr mag/cell

     iteration # 61     ecut=    36.75 Ry     beta= 0.05
     Davidson diagonalization with overlap
     ethr =  8.71E-09,  avg # of iterations =  2.0

     negative rho (up, down):  1.078E-02 1.090E-02
 
     Adding external electric field

     Computed dipole along edir(3) : 
        Dipole               -0.4780 Ry au,         -1.2151 Debye
        Dipole field         -0.0009 Ry au, 
 
        Potential amp.        0.0836 Ry
        Total length         46.3494 bohr
 
 
     Adding external electric field

     Computed dipole along edir(3) : 
        Dipole               -0.4780 Ry au,         -1.2151 Debye
        Dipole field         -0.0009 Ry au, 
 
        Potential amp.        0.0836 Ry
        Total length         46.3494 bohr
 

     total cpu time spent up to now is     1839.8 secs

     total energy              =   -3332.83585305 Ry
     estimated scf accuracy    <       0.00005882 Ry

     total magnetization       =     0.19 Bohr mag/cell
[...]
    -1.8176  -1.6833  -1.5375  -1.4888  -1.4865  -1.4235  -1.4155  -1.3808
    -1.3518  -1.3193  -1.1911  -1.1149  -1.0718  -1.0552  -0.9638  -0.9492
    -0.9067  -0.8865  -0.8685  -0.8257  -0.7801  -0.7250  -0.6916  -0.6608
    -0.6371  -0.6190  -0.5348  -0.4833  -0.3991  -0.3405  -0.3202  -0.3117
    -0.2324  -0.0197   0.0309   0.1118   0.3154   0.3637   0.4135   0.5578
     0.8936   0.9859   1.7920   1.9184   2.6228   2.6706   2.7907   2.8300
     2.8377   2.9084   2.9542   2.9730   3.0103   3.0311

          k = 0.0380 0.0419 0.0000 ( 25075 PWs)   bands (ev):

   -56.5825 -56.5818 -56.5643 -56.5565 -56.5534 -56.5019 -56.4585 -56.4245
   -56.3923 -56.3673 -56.3605 -56.3594 -56.3343 -56.2721 -55.6096 -55.5855
   -33.0635 -32.9488 -32.9073 -32.8981 -32.8380 -32.8359 -32.8294 -32.8078
   -32.7967 -32.7949 -32.7740 -32.7481 -32.7396 -32.7216 -32.7204 -32.7074
   -32.6815 -32.6698 -32.6572 -32.6431 -32.6310 -32.6265 -32.6054 -32.6036
   -32.5906 -32.5740 -32.5705 -32.5664 -32.5579 -32.5560 -32.5474 -32.5423
   -32.5289 -32.5247 -32.5097 -32.4949 -32.4852 -32.4599 -32.4596 -32.4515
   -32.4239 -32.3921 -31.9166 -31.8747 -31.8552 -31.7784 -31.7170 -31.6479
   -22.1239 -17.2278 -16.9137 -16.8337 -16.7518 -16.6646 -16.6009 -16.5512
   -16.4974 -16.4256 -16.3666 -16.3407 -16.3170 -16.2879 -16.2803 -16.2303
   -16.2107 -16.1715 -16.1260 -16.0939 -16.0333 -16.0260 -16.0114 -15.9734
   -15.9432 -15.9021 -15.8609 -15.8019 -15.7512 -15.7109 -14.8376 -14.1938
   -14.1139  -5.8442  -4.4467  -4.2136  -4.1849  -4.1608  -4.1055  -4.0656
    -4.0116  -3.9508  -3.9101  -3.8856  -3.7942  -3.6880  -3.6427  -3.6326
    -3.5907  -3.5661  -3.5124  -3.4706  -3.4474  -3.4364  -3.3995  -3.3709
    -3.3421  -3.3196  -3.3019  -3.2422  -3.1841  -3.1645  -3.1043  -3.0622
    -3.0439  -2.9566  -2.9088  -2.8886  -2.8100  -2.7899  -2.7404  -2.5952
    -2.5204  -2.5008  -2.4141  -2.3437  -2.3018  -2.2043  -2.0858  -2.0771
    -2.0410  -1.9623  -1.9300  -1.8974  -1.8695  -1.8424  -1.7663  -1.7289
    -1.6738  -1.6261  -1.6171  -1.5616  -1.5132  -1.4602  -1.4416  -1.4125
    -1.3322  -1.3002  -1.2892  -1.2745  -1.2198  -1.2072  -1.1574  -1.1399
    -1.0863  -1.0638  -0.9839  -0.9400  -0.8847  -0.8085  -0.7649  -0.7204
    -0.6724  -0.5935  -0.5448  -0.4636  -0.4048  -0.3536  -0.3013  -0.2510
    -0.1996  -0.1289  -0.0787  -0.0233   0.0345   0.3241   0.6099   0.6730
     0.8766   0.9631   1.7731   1.9140   2.7093   2.7683   2.8514   2.8724
     2.8990   2.9216   2.9688   3.0453   3.0816   3.1106

          k = 0.0380-0.0839 0.0000 ( 25070 PWs)   bands (ev):

   -56.5752 -56.5713 -56.5679 -56.5616 -56.5600 -56.5044 -56.4538 -56.4293
   -56.3823 -56.3773 -56.3590 -56.3507 -56.3430 -56.2736 -55.5977 -55.5975
   -32.9265 -32.9231 -32.8848 -32.8465 -32.8240 -32.8220 -32.8094 -32.7971
   -32.7923 -32.7589 -32.7483 -32.7446 -32.7364 -32.7284 -32.7119 -32.7048
   -32.6754 -32.6704 -32.6683 -32.6565 -32.6440 -32.6418 -32.6320 -32.6132
   -32.6064 -32.6036 -32.5943 -32.5894 -32.5722 -32.5601 -32.5545 -32.5500
   -32.5450 -32.5370 -32.5321 -32.5257 -32.5232 -32.4682 -32.4622 -32.4608
   -32.4489 -32.4147 -31.8650 -31.8647 -31.7842 -31.7840 -31.7479 -31.7476
   -22.1239 -16.9139 -16.9087 -16.6798 -16.6717 -16.6326 -16.5486 -16.5194
   -16.4769 -16.4591 -16.4428 -16.3845 -16.3203 -16.2660 -16.2139 -16.1974
   -16.1958 -16.1693 -16.1382 -16.1136 -16.0787 -16.0569 -16.0333 -16.0207
   -16.0016 -15.9281 -15.9240 -15.8802 -15.8679 -15.8614 -14.8381 -14.1774
   -14.1749  -5.8449  -4.1810  -4.1313  -4.0738  -4.0407  -3.8558  -3.7962
    -3.7788  -3.7709  -3.7613  -3.7338  -3.7195  -3.6366  -3.6250  -3.6239
    -3.6101  -3.5905  -3.5469  -3.5320  -3.4735  -3.4490  -3.4443  -3.3924
    -3.3656  -3.3599  -3.3495  -3.3264  -3.2764  -3.2325  -3.2122  -3.1681
    -3.1234  -3.1023  -2.8094  -2.7581  -2.6927  -2.6553  -2.6015  -2.5154
    -2.5051  -2.4776  -2.4249  -2.4034  -2.3691  -2.3486  -2.3143  -2.3098
    -2.1841  -2.1793  -2.1161  -2.0955  -1.9149  -1.8822  -1.8634  -1.7723
    -1.6366  -1.6270  -1.5511  -1.5279  -1.4890  -1.4276  -1.3478  -1.3336
    -1.3248  -1.3069  -1.2825  -1.2790  -1.2430  -1.1809  -1.1542  -1.1374
    -1.1089  -1.0878  -1.0717  -1.0343  -0.9872  -0.9089  -0.7945  -0.7672
    -0.7325  -0.6697  -0.5594  -0.5193  -0.4799  -0.4178  -0.3681  -0.3011
    -0.2770  -0.2118  -0.1114  -0.0322   0.1207   0.1516   0.7482   0.7488
     0.8908   0.8940   1.7781   1.9077   2.7228   2.7455   2.8495   2.8790
     2.9380   2.9619   3.0141   3.1477   3.1592   3.1840

          k = 0.0380-0.0419 0.0000 ( 25077 PWs)   bands (ev):

   -56.5825 -56.5818 -56.5643 -56.5565 -56.5534 -56.5019 -56.4585 -56.4245
   -56.3923 -56.3673 -56.3605 -56.3594 -56.3343 -56.2721 -55.6096 -55.5855
   -33.0635 -32.9488 -32.9072 -32.8981 -32.8380 -32.8359 -32.8294 -32.8078
   -32.7967 -32.7949 -32.7740 -32.7481 -32.7396 -32.7216 -32.7205 -32.7074
   -32.6815 -32.6698 -32.6571 -32.6431 -32.6311 -32.6265 -32.6056 -32.6036
   -32.5905 -32.5740 -32.5704 -32.5664 -32.5581 -32.5559 -32.5474 -32.5423
   -32.5289 -32.5246 -32.5098 -32.4949 -32.4853 -32.4599 -32.4599 -32.4515
   -32.4239 -32.3920 -31.9166 -31.8747 -31.8552 -31.7784 -31.7170 -31.6479
   -22.1239 -17.2278 -16.9136 -16.8336 -16.7518 -16.6646 -16.6007 -16.5512
   -16.4974 -16.4264 -16.3654 -16.3412 -16.3176 -16.2880 -16.2802 -16.2306
   -16.2106 -16.1716 -16.1257 -16.0940 -16.0333 -16.0256 -16.0114 -15.9734
   -15.9428 -15.9023 -15.8604 -15.8023 -15.7513 -15.7109 -14.8376 -14.1938
   -14.1139  -5.8443  -4.4467  -4.2147  -4.1847  -4.1614  -4.1034  -4.0650
    -4.0109  -3.9502  -3.9099  -3.8854  -3.7939  -3.6873  -3.6434  -3.6339
    -3.5906  -3.5669  -3.5126  -3.4708  -3.4433  -3.4379  -3.4007  -3.3716
    -3.3422  -3.3195  -3.3026  -3.2436  -3.1832  -3.1651  -3.1038  -3.0603
    -3.0446  -2.9552  -2.9080  -2.8837  -2.8087  -2.8000  -2.7399  -2.5945
    -2.5193  -2.5007  -2.4142  -2.3435  -2.3017  -2.2056  -2.0838  -2.0778
    -2.0410  -1.9629  -1.9288  -1.8978  -1.8702  -1.8436  -1.7671  -1.7307
    -1.6728  -1.6292  -1.6200  -1.5627  -1.5124  -1.4610  -1.4412  -1.4122
    -1.3352  -1.3049  -1.2873  -1.2723  -1.2204  -1.2073  -1.1559  -1.1388
    -1.0858  -1.0622  -0.9826  -0.9400  -0.8846  -0.8086  -0.7642  -0.7201
    -0.6707  -0.5944  -0.5435  -0.4652  -0.4052  -0.3537  -0.2998  -0.2510
    -0.1999  -0.1269  -0.0786  -0.0230   0.0361   0.3244   0.6099   0.6730
     0.8764   0.9637   1.7721   1.9139   2.7099   2.7672   2.8520   2.8721
     2.9017   2.9191   2.9694   3.0422   3.0818   3.1113

          k =-0.0760-0.0000 0.0000 ( 25092 PWs)   bands (ev):

   -56.5877 -56.5862 -56.5665 -56.5512 -56.5490 -56.4996 -56.4622 -56.4209
   -56.3971 -56.3643 -56.3623 -56.3620 -56.3296 -56.2705 -55.6146 -55.5805
   -33.1213 -33.0037 -32.9626 -32.9055 -32.8925 -32.8588 -32.8335 -32.8331
   -32.8251 -32.7951 -32.7865 -32.7815 -32.7230 -32.7186 -32.6977 -32.6867
   -32.6802 -32.6495 -32.6439 -32.6409 -32.6244 -32.6143 -32.5903 -32.5838
   -32.5768 -32.5731 -32.5714 -32.5488 -32.5437 -32.5427 -32.5346 -32.5343
   -32.5331 -32.5119 -32.5048 -32.4943 -32.4599 -32.4497 -32.4450 -32.4163
   -32.4101 -32.3580 -31.9701 -31.8825 -31.8497 -31.7909 -31.7042 -31.5905
   -22.1239 -17.2584 -16.9831 -16.8211 -16.7682 -16.6983 -16.6691 -16.5783
   -16.4967 -16.4683 -16.4580 -16.4146 -16.3660 -16.3509 -16.3501 -16.3035
   -16.2245 -16.1908 -16.1128 -16.0368 -16.0309 -16.0128 -15.9558 -15.9229
   -15.8650 -15.8341 -15.7938 -15.7010 -15.6862 -15.6211 -14.8370 -14.1864
   -14.0740  -5.8425  -4.6007  -4.2735  -4.1942  -4.1838  -4.1781  -4.1169
    -3.9949  -3.9649  -3.9469  -3.8822  -3.8368  -3.8189  -3.8130  -3.7765
    -3.7539  -3.6424  -3.4798  -3.4337  -3.4178  -3.3473  -3.1747  -3.1627
    -3.1494  -3.0827  -3.0733  -3.0519  -3.0244  -3.0015  -2.9452  -2.9177
    -2.8427  -2.8089  -2.8049  -2.7904  -2.7887  -2.7763  -2.7022  -2.6463
    -2.6347  -2.5021  -2.4237  -2.3445  -2.2774  -2.2676  -2.2394  -2.2368
    -2.1877  -2.1542  -2.1433  -2.0201  -1.9924  -1.9559  -1.8841  -1.8693
    -1.8288  -1.7619  -1.7225  -1.7069  -1.5232  -1.4900  -1.3810  -1.3611
    -1.3385  -1.3045  -1.2995  -1.2130  -1.1899  -1.1875  -1.1231  -1.0923
    -1.0084  -0.9191  -0.9005  -0.8592  -0.8414  -0.8287  -0.7734  -0.7385
    -0.7128  -0.6036  -0.5445  -0.4905  -0.4578  -0.4448  -0.2301  -0.1838
    -0.1427  -0.0705   0.0371   0.0919   0.1660   0.3333   0.4373   0.5285
     0.7492   0.9132   1.7918   1.8986   2.5949   2.6347   2.6899   2.7980
     2.8617   2.8711   2.8999   2.9832   3.0041   3.0425

          k =-0.0760 0.0419 0.0000 ( 25078 PWs)   bands (ev):

   -56.5824 -56.5818 -56.5642 -56.5564 -56.5534 -56.5019 -56.4585 -56.4245
   -56.3921 -56.3673 -56.3605 -56.3595 -56.3344 -56.2721 -55.6096 -55.5855
   -33.0637 -32.9499 -32.9095 -32.8982 -32.8420 -32.8378 -32.8295 -32.8080
   -32.7967 -32.7957 -32.7742 -32.7484 -32.7436 -32.7212 -32.7131 -32.6859
   -32.6817 -32.6674 -32.6476 -32.6427 -32.6318 -32.6280 -32.6242 -32.6034
   -32.5907 -32.5707 -32.5689 -32.5614 -32.5554 -32.5474 -32.5426 -32.5348
   -32.5314 -32.5298 -32.5203 -32.4985 -32.4930 -32.4611 -32.4601 -32.4579
   -32.4239 -32.3920 -31.9163 -31.8775 -31.8543 -31.7784 -31.7170 -31.6479
   -22.1239 -17.1394 -16.8743 -16.7295 -16.6662 -16.6611 -16.5863 -16.5469
   -16.4908 -16.4555 -16.4054 -16.3853 -16.3465 -16.3430 -16.3235 -16.2837
   -16.2073 -16.1564 -16.1385 -16.1213 -16.0667 -16.0659 -16.0283 -15.9686
   -15.9652 -15.8876 -15.8722 -15.8001 -15.7489 -15.7118 -14.8376 -14.1916
   -14.1143  -5.8438  -4.4319  -4.1865  -4.1477  -4.1077  -3.9153  -3.9102
    -3.8185  -3.7854  -3.7379  -3.7159  -3.6739  -3.6511  -3.6388  -3.6304
    -3.6032  -3.5381  -3.5315  -3.5092  -3.4074  -3.3774  -3.3221  -3.2961
    -3.2801  -3.2546  -3.2227  -3.1595  -3.1459  -3.1413  -3.0836  -3.0386
    -3.0133  -2.9622  -2.9333  -2.8298  -2.7275  -2.7185  -2.6556  -2.6444
    -2.6117  -2.5197  -2.3466  -2.2953  -2.2499  -2.2446  -2.1410  -2.1256
    -2.0732  -2.0669  -2.0127  -1.9941  -1.9319  -1.9239  -1.8954  -1.8365
    -1.8230  -1.7937  -1.7422  -1.6993  -1.6965  -1.6815  -1.6212  -1.5577
    -1.4739  -1.4503  -1.4239  -1.4048  -1.3000  -1.2920  -1.2738  -1.2366
    -1.1210  -1.1128  -1.0256  -0.9810  -0.9391  -0.9264  -0.7400  -0.6801
    -0.6399  -0.6377  -0.5221  -0.4604  -0.3973  -0.2984  -0.2305  -0.1701
    -0.1171  -0.0634  -0.0410  -0.0128   0.0105   0.1804   0.6263   0.6763
     0.8021   0.9430   1.7767   1.9089   2.6432   2.7316   2.7847   2.8046
     2.8587   2.8906   2.9326   3.0173   3.0886   3.1557

          k =-0.0760-0.0839 0.0000 ( 25128 PWs)   bands (ev):

   -56.5752 -56.5713 -56.5679 -56.5616 -56.5600 -56.5044 -56.4538 -56.4293
   -56.3823 -56.3772 -56.3590 -56.3508 -56.3431 -56.2737 -55.5977 -55.5975
   -32.9267 -32.9233 -32.8849 -32.8467 -32.8247 -32.8220 -32.8102 -32.7971
   -32.7941 -32.7595 -32.7494 -32.7449 -32.7381 -32.7361 -32.7179 -32.6981
   -32.6755 -32.6652 -32.6493 -32.6404 -32.6396 -32.6385 -32.6306 -32.6187
   -32.6125 -32.6053 -32.6039 -32.5943 -32.5841 -32.5598 -32.5543 -32.5501
   -32.5452 -32.5277 -32.5263 -32.5051 -32.5023 -32.4940 -32.4846 -32.4632
   -32.4489 -32.4146 -31.8659 -31.8656 -31.7841 -31.7839 -31.7479 -31.7476
   -22.1239 -16.8634 -16.8364 -16.6952 -16.6042 -16.5940 -16.5098 -16.4850
   -16.4133 -16.4004 -16.3890 -16.3555 -16.3427 -16.3127 -16.2946 -16.2405
   -16.2052 -16.1926 -16.1688 -16.1639 -16.1128 -16.1121 -16.0719 -16.0544
   -15.9961 -15.9942 -15.9738 -15.8802 -15.8604 -15.8552 -14.8382 -14.1772
   -14.1747  -5.8451  -4.1783  -4.1315  -4.0731  -4.0411  -3.8289  -3.7329
    -3.7221  -3.6559  -3.5758  -3.5509  -3.5156  -3.4805  -3.4369  -3.4283
    -3.4150  -3.4004  -3.3916  -3.3904  -3.3479  -3.3339  -3.3055  -3.2848
    -3.2612  -3.2044  -3.1971  -3.1901  -3.1709  -3.1458  -3.1252  -3.1158
    -3.1141  -3.1023  -2.8611  -2.8532  -2.7962  -2.7346  -2.7062  -2.6946
    -2.6748  -2.6339  -2.6128  -2.5648  -2.5104  -2.4552  -2.3358  -2.3122
    -2.3067  -2.2691  -2.2060  -2.0773  -2.0268  -1.9998  -1.9577  -1.8928
    -1.8767  -1.8302  -1.7376  -1.7065  -1.6811  -1.5961  -1.5410  -1.5269
    -1.5223  -1.5057  -1.4455  -1.3650  -1.3295  -1.3039  -1.2544  -1.1777
    -1.1602  -1.1536  -1.1460  -1.1365  -1.0340  -0.9883  -0.8119  -0.7029
    -0.6085  -0.5738  -0.5416  -0.4560  -0.3973  -0.3019  -0.2885  -0.1533
    -0.1459  -0.0885  -0.0471  -0.0224   0.0032   0.0462   0.7684   0.7707
     0.8725   0.8812   1.7836   1.9131   2.7013   2.7722   2.7791   2.8572
     3.0190   3.0424   3.0513   3.0599   3.0988   3.1994

     the Fermi energy is     2.6406 ev

!    total energy              =   -3332.83610146 Ry
     estimated scf accuracy    <       0.00000007 Ry
     smearing contrib. (-TS)   =      -0.00048443 Ry
     internal energy E=F+TS    =   -3332.83561703 Ry

     The total energy is F=E-TS. E is the sum of the following terms:
     one-electron contribution =  -23754.39798870 Ry
     hartree contribution      =   11966.55201587 Ry
     xc contribution           =    -558.42289494 Ry
     ewald contribution        =    9345.49018483 Ry
     electric field correction =       0.00044814 Ry
     one-center paw contrib.   =    -332.05738224 Ry

     total magnetization       =     0.02 Bohr mag/cell
     absolute magnetization    =     0.04 Bohr mag/cell

     convergence has been achieved in 110 iterations

     negative rho (up, down):  1.079E-02 1.081E-02

     Forces acting on atoms (cartesian axes, Ry/au):

     atom    1 type  1   force =    -0.00003254    0.00007059    0.11098022
     atom    2 type  1   force =    -0.00010111   -0.00005952   -0.17848506
     atom    3 type  2   force =     0.00015976    0.00004870   -0.03063355
     atom    4 type  2   force =     0.00002998    0.00006016    0.04889155
     atom    5 type  2   force =    -0.01998780   -0.00122382    0.00570421
     atom    6 type  2   force =     0.01988929   -0.00087157    0.00572109
     atom    7 type  1   force =    -0.00002051    0.00034629   -0.00551316
     atom    8 type  1   force =    -0.00000590    0.00836076   -0.01004413
     atom    9 type  2   force =    -0.00004748   -0.00005022    0.00007568
     atom   10 type  2   force =     0.00028912    0.00045150    0.00697176
     atom   11 type  2   force =    -0.00023415    0.00033707    0.00006537
     atom   12 type  2   force =     0.00022947    0.00033205    0.00000174
     atom   13 type  1   force =    -0.00005372    0.00000608   -0.00051665
     atom   14 type  1   force =    -0.00008155   -0.00016259    0.00056823
     atom   15 type  2   force =    -0.00001071    0.00011624    0.00079644
     atom   16 type  2   force =     0.00015820    0.00000537    0.00038971
     atom   17 type  2   force =     0.00013480   -0.00013021    0.00000445
     atom   18 type  2   force =    -0.00020861   -0.00011707   -0.00001973
     atom   19 type  1   force =    -0.00002184   -0.00013575   -0.00031853
     atom   20 type  1   force =     0.00018300   -0.00076152   -0.00014519
     atom   21 type  2   force =     0.00005938    0.00009483    0.10251455
     atom   22 type  2   force =     0.00003103    0.00009609   -0.00047157
     atom   23 type  2   force =    -0.06746414    0.00063186   -0.03049294
     atom   24 type  2   force =     0.06737915    0.00119893   -0.03053592
     atom   25 type  1   force =     0.00016406   -0.00000577    0.12078015
     atom   26 type  1   force =    -0.00010320   -0.00002801   -0.17844596
     atom   27 type  2   force =    -0.00006379   -0.00002048   -0.02864155
     atom   28 type  2   force =     0.00000813   -0.00000885    0.04971640
     atom   29 type  2   force =    -0.01985408    0.00062109    0.00581445
     atom   30 type  2   force =     0.01977006    0.00124428    0.00582904
     atom   31 type  1   force =     0.00004919   -0.00039764   -0.00606592
     atom   32 type  1   force =    -0.00001304   -0.00855888   -0.00954135
     atom   33 type  2   force =    -0.00001496    0.00002203    0.00002057
     atom   34 type  2   force =    -0.00008658    0.00019525    0.00122504
     atom   35 type  2   force =    -0.00024431   -0.00037165    0.00007672
     atom   36 type  2   force =     0.00023218   -0.00036744    0.00000702
     atom   37 type  1   force =     0.00000555    0.00012208   -0.00000357
     atom   38 type  1   force =    -0.00008872    0.00009330    0.00048835
     atom   39 type  2   force =    -0.00002053   -0.00020649    0.00113852
     atom   40 type  2   force =     0.00003289    0.00001838    0.00013127
     atom   41 type  2   force =     0.00005521    0.00023951   -0.00004265
     atom   42 type  2   force =    -0.00002818    0.00018433   -0.00003849
     atom   43 type  1   force =     0.00021369    0.00021062   -0.00002690
     atom   44 type  1   force =     0.00004506    0.00091146    0.00044145
     atom   45 type  2   force =     0.00005531    0.00007673    0.10257394
     atom   46 type  3   force =    -0.00024871   -0.00005241   -0.00087780
     atom   47 type  2   force =    -0.06743180   -0.00105738   -0.03045288
     atom   48 type  2   force =     0.06735241   -0.00075291   -0.03049485
     atom   49 type  2   force =     0.00027683   -0.00024512   -0.00005920
     atom   50 type  2   force =    -0.00033579   -0.00051028    0.00093965

     Total force =     0.377270     Total SCF correction =     0.000519
  @ DRIVER MODE: Message from server: STATUS
  @ DRIVER MODE: Message from server: GETFORCE
  @ DRIVER MODE: Returning v,forces,stress,ensemble 

     Writing output data file ./calc.save/
  @ DRIVER MODE: Message from server: EXIT
  @ DRIVE MODE: Exiting  
 
     init_run     :     29.24s CPU     29.88s WALL (       1 calls)
     electrons    :  26339.09s CPU  27033.04s WALL (      12 calls)
     update_pot   :     23.60s CPU     27.37s WALL (      11 calls)
     forces       :     86.91s CPU    102.13s WALL (      12 calls)

     Called by init_run:
     wfcinit      :     21.77s CPU     21.99s WALL (       1 calls)
     potinit      :      4.86s CPU      4.94s WALL (       1 calls)
     hinit0       :      1.69s CPU      1.71s WALL (       1 calls)

     Called by electrons:
     c_bands      :  21109.38s CPU  21548.49s WALL (    1033 calls)
     sum_band     :   3616.38s CPU   3727.96s WALL (    1033 calls)
     v_of_rho     :    814.69s CPU    837.47s WALL (    1045 calls)
     newd         :    281.57s CPU    335.65s WALL (    1045 calls)
     PAW_pot      :    392.31s CPU    400.05s WALL (    1056 calls)
     mix_rho      :    111.67s CPU    117.37s WALL (    1033 calls)
     vdW_kernel   :      3.03s CPU      3.05s WALL (       1 calls)

     Called by c_bands:
     init_us_2    :    181.61s CPU    183.46s WALL (   41800 calls)
     cegterg      :  20514.55s CPU  20941.03s WALL (   20695 calls)

     Called by *egterg:
     cdiaghg      :   3405.65s CPU   3545.19s WALL (   88724 calls)
     h_psi        :  11033.58s CPU  11263.99s WALL (   88999 calls)
     s_psi        :   1222.19s CPU   1227.27s WALL (   88999 calls)
     g_psi        :     33.42s CPU     33.72s WALL (   68284 calls)

     Called by h_psi:
     h_psi:calbec :   1306.02s CPU   1315.74s WALL (   88999 calls)
     vloc_psi     :   8418.47s CPU   8631.98s WALL (   88999 calls)
     add_vuspsi   :   1234.97s CPU   1240.54s WALL (   88999 calls)

     General routines
     calbec       :   1933.33s CPU   1951.15s WALL (  110839 calls)
     fft          :    606.80s CPU    615.74s WALL (   93940 calls)
     ffts         :      6.24s CPU      6.49s WALL (    4156 calls)
     fftw         :  10342.00s CPU  10608.55s WALL (23018936 calls)
     interpolate  :     16.83s CPU     17.69s WALL (    2090 calls)
     davcio       :      0.00s CPU      0.86s WALL (      20 calls)
 
     Parallel routines
 
     PWSCF        :      7h21m CPU      7h34m WALL

 
   This run was terminated on:  23:44:49  17Feb2022            

=------------------------------------------------------------------------------=
   JOB DONE.
=------------------------------------------------------------------------------=
