
     Program PWSCF v.6.7GPU starts on 16Feb2022 at  0:35:47 

     This program is part of the open-source Quantum ESPRESSO suite
     for quantum simulation of materials; please cite
         "P. Giannozzi et al., J. Phys.:Condens. Matter 21 395502 (2009);
         "P. Giannozzi et al., J. Phys.:Condens. Matter 29 465901 (2017);
         "P. Giannozzi et al., J. Chem. Phys. 152 154105 (2020);
          URL http://www.quantum-espresso.org", 
     in publications or presentations arising from this work. More details at
     http://www.quantum-espresso.org/quote

     Parallel version (MPI), running on    16 processors

     MPI processes distributed on     1 nodes
     R & G space division:  proc/nbgrp/npool/nimage =      16
     Reading input from /storage/coda1/p-amedford6/0/bchen380/C22/O2_C/qe_3983491.sched-torque.pace.gatech.edu/pw.inp
Warning: card &CELL ignored
Warning: card   CELL_DYNAMICS='IPI', ignored
Warning: card / ignored

     Current dimensions of program PWSCF are:
     Max number of different atomic species (ntypx) = 10
     Max number of k-points (npk) =  40000
     Max angular momentum in pseudopotentials (lmaxx) =  3
     Message from routine cell_base_init:
     DEPRECATED: use true lattice parameter, not A to a.u. conversion factor
     file O.UPF: wavefunction(s)  2P renormalized
     file C.UPF: wavefunction(s)  2S 2P renormalized

     **************************************************************************
     Initializing libbeef V0.1.2 with the BEEF-vdW functional.
     Citation: Wellendorff et al., PRB 85, 235149 (2012).
     **************************************************************************


     IMPORTANT: XC functional enforced from input :
     Exchange-correlation= BEEF-VDW
                           (   1   4  43  14   2   0   0)
     Any further DFT definition will be discarded
     Please, verify this is what you really want


     Subspace diagonalization in iterative solution of the eigenvalue problem:
     one sub-group per band group will be used
     scalapack distributed-memory algorithm (size of sub-group:  4*  4 procs)

  @ DRIVER MODE: Connecting to 
 qe_1064200_3983491.sched-torque.pace.gatech.edu0k642wkw_scratch
  using UNIX socket
  @ DRIVER MODE: Message from server: STATUS
  @ DRIVER MODE: Message from server: INIT
  @ DRIVER MODE: Receiving replica           0          -1
  @ DRIVER MODE: Receiving encoded integer          25
  @ DRIVER MODE:  SCF:  T  FORCE:  T  STRESS:  F  VC:  F  ENSEMBLE:  F
  @ DRIVER MODE:  SCF:  T  FORCE:  T  STRESS:  F  VC:  F  ENSEMBLE:  F
 
     Parallelization info
     --------------------
     sticks:   dense  smooth     PW     G-vecs:    dense   smooth      PW
     Min         256     102     28                49498    12526    1868
     Max         257     103     29                49510    12535    1881
     Sum        4097    1637    459               792059   200495   30031
 
     Using Slab Decomposition
 


     bravais-lattice index     =            0
     lattice parameter (alat)  =       1.8897  a.u.
     unit-cell volume          =    6658.9804 (a.u.)^3
     number of atoms/cell      =           50
     number of atomic types    =            3
     number of electrons       =       394.00
     number of Kohn-Sham states=          207
     kinetic-energy cutoff     =      36.7493  Ry
     charge density cutoff     =     367.4932  Ry
     scf convergence threshold =      7.3E-08
     mixing beta               =       0.0500
     number of iterations used =            8  plain     mixing
     Exchange-correlation= BEEF-VDW
                           (   1   4  43  14   2   0   0)

     celldm(1)=   1.889726  celldm(2)=   0.000000  celldm(3)=   0.000000
     celldm(4)=   0.000000  celldm(5)=   0.000000  celldm(6)=   0.000000

     crystal axes: (cart. coord. in units of alat)
               a(1) = (   6.579727   0.000000   0.000000 )  
               a(2) = (  -0.000775   5.961596   0.000000 )  
               a(3) = (   0.000000   0.000000  25.155947 )  

     reciprocal axes: (cart. coord. in units 2 pi/alat)
               b(1) = (  0.151982  0.000020  0.000000 )  
               b(2) = (  0.000000  0.167740  0.000000 )  
               b(3) = (  0.000000  0.000000  0.039752 )  


     PseudoPot. # 1 for Ti read from file:
     /storage/coda1/p-amedford6/0/shared/rich_project_chbe-medford/medford-share/data/pseudos_module/espresso/esp_pseudos_old/Ti.UPF
     MD5 check sum: 88a00a6731bd790ddea75d31a80cb452
     Pseudo is Ultrasoft + core correction, Zval = 12.0
     Generated by new atomic code, or converted to UPF format
     Using radial grid of  851 points,  6 beta functions with: 
                l(1) =   0
                l(2) =   0
                l(3) =   1
                l(4) =   1
                l(5) =   2
                l(6) =   2
     Q(r) pseudized with  6 coefficients,  rinner =    1.000   1.000   1.000
                                                       1.000   1.000

     PseudoPot. # 2 for O  read from file:
     /storage/coda1/p-amedford6/0/shared/rich_project_chbe-medford/medford-share/data/pseudos_module/espresso/esp_pseudos_old/O.UPF
     MD5 check sum: 0234752ac141de4415c5fc33072bef88
     Pseudo is Projector augmented-wave + core cor, Zval =  6.0
     Generated using "atomic" code by A. Dal Corso  v.5.0.99 svn rev. 10869
     Shape of augmentation charge: BESSEL
     Using radial grid of 1095 points,  4 beta functions with: 
                l(1) =   0
                l(2) =   0
                l(3) =   1
                l(4) =   1
     Q(r) pseudized with 0 coefficients 


     PseudoPot. # 3 for C  read from file:
     /storage/coda1/p-amedford6/0/shared/rich_project_chbe-medford/medford-share/data/pseudos_module/espresso/esp_pseudos_old/C.UPF
     MD5 check sum: 5d2aebdfa2cae82b50a7e79e9516da0f
     Pseudo is Projector augmented-wave + core cor, Zval =  4.0
     Generated using "atomic" code by A. Dal Corso  v.5.1
     Shape of augmentation charge: PSQ
     Using radial grid of 1073 points,  4 beta functions with: 
                l(1) =   0
                l(2) =   0
                l(3) =   1
                l(4) =   1
     Q(r) pseudized with 0 coefficients 


     atomic species   valence    mass     pseudopotential
        Ti1           12.00    47.86700     Ti( 1.00)
        O1             6.00    15.99900     O ( 1.00)
        C1             4.00    12.01100     C ( 1.00)

     Starting magnetic structure 
     atomic species   magnetization
        Ti1          0.000
        O1           0.000
        C1           0.000

     No symmetry found



   Cartesian axes

     site n.     atom                  positions (alat units)
         1           Ti1 tau(   1) = (   0.0004258   2.9801865   6.0000000  )
         2           Ti1 tau(   2) = (   3.2906075   1.4906267   6.0002472  )
         3           O1  tau(   3) = (   0.0006271   0.0005054   7.9858123  )
         4           O1  tau(   4) = (   3.2906025   0.0005020   7.3038282  )
         5           O1  tau(   5) = (   4.5942328   1.4918067   9.2879030  )
         6           O1  tau(   6) = (   1.9868534   1.4903216   9.2879459  )
         7           Ti1 tau(   7) = (   3.2905683   2.9818392   9.1597947  )
         8           Ti1 tau(   8) = (   0.0009689   1.5052867   9.3302970  )
         9           O1  tau(   9) = (   3.2907689   0.0016648  11.3563317  )
        10           O1  tau(  10) = (   0.0007044   0.0001637  10.5878211  )
        11           O1  tau(  11) = (   1.3004573   1.4911895  12.6196604  )
        12           O1  tau(  12) = (   5.2803146   1.4910465  12.6198809  )
        13           Ti1 tau(  13) = (   0.0003545   2.9813121  12.7572432  )
        14           Ti1 tau(  14) = (   3.2903971   1.4912328  12.5002874  )
        15           O1  tau(  15) = (  -0.0002320   5.9576404  14.5977444  )
        16           O1  tau(  16) = (   3.2901645   0.0058045  13.9855309  )
        17           O1  tau(  17) = (   4.5492778   1.5221801  16.1329724  )
        18           O1  tau(  18) = (   2.0311275   1.5222091  16.1330501  )
        19           Ti1 tau(  19) = (   3.2902041   2.9895352  15.7368220  )
        20           Ti1 tau(  20) = (   0.0001478   1.4235607  15.9669019  )
        21           O1  tau(  21) = (   3.2904802   0.0005063   4.7018136  )
        22           O1  tau(  22) = (   0.0000052   5.9613278  17.1620205  )
        23           O1  tau(  23) = (   1.3043587   1.4918075   6.0039043  )
        24           O1  tau(  24) = (   5.2767064   1.4903225   6.0039473  )
        25           Ti1 tau(  25) = (   0.0000382   5.9609847   6.0000000  )
        26           Ti1 tau(  26) = (   3.2902200   4.4714249   6.0002472  )
        27           O1  tau(  27) = (   0.0002396   2.9813036   7.9858123  )
        28           O1  tau(  28) = (   3.2902150   2.9813002   7.3038282  )
        29           O1  tau(  29) = (   4.5938453   4.4726049   9.2879030  )
        30           O1  tau(  30) = (   1.9864658   4.4711199   9.2879459  )
        31           Ti1 tau(  31) = (   3.2909982   0.0016570   9.1583503  )
        32           Ti1 tau(  32) = (   0.0005865   4.4518293   9.3323505  )
        33           O1  tau(  33) = (   3.2903422   2.9801403  11.3468332  )
        34           O1  tau(  34) = (   0.0003571   2.9798178  10.5649370  )
        35           O1  tau(  35) = (   1.3005412   4.4692167  12.6173387  )
        36           O1  tau(  36) = (   5.2794693   4.4690741  12.6175999  )
        37           Ti1 tau(  37) = (  -0.0000806   5.9612980  12.5816508  )
        38           Ti1 tau(  38) = (   3.2900041   4.4658170  12.4917948  )
        39           O1  tau(  39) = (   0.0004188   2.9814100  14.6485654  )
        40           O1  tau(  40) = (   3.2900918   2.9860882  13.9373905  )
        41           O1  tau(  41) = (   4.5492228   4.4522151  16.1330783  )
        42           O1  tau(  42) = (   2.0303863   4.4519659  16.1333203  )
        43           Ti1 tau(  43) = (   3.2899546   0.0061948  15.7807570  )
        44           Ti1 tau(  44) = (  -0.0001637   4.5606593  15.9768108  )
        45           O1  tau(  45) = (   3.2900926   2.9813045   4.7018136  )
        46           C1  tau(  46) = (   6.5792260   2.9590799  17.8640153  )
        47           O1  tau(  47) = (   1.3039711   4.4726057   6.0039043  )
        48           O1  tau(  48) = (   5.2763189   4.4711207   6.0039473  )
        49           O1  tau(  49) = (   6.3491669   2.7825235  19.0640153  )
        50           O1  tau(  50) = (   6.2271734   2.6017940  20.1640153  )

     number of k points=    10  Fermi-Dirac smearing, width (Ry)=  0.0007
                       cart. coord. in units 2pi/alat
        k(    1) = (   0.0000000   0.0000000   0.0000000), wk =   0.0625000
        k(    2) = (   0.0000000   0.0419351   0.0000000), wk =   0.1250000
        k(    3) = (   0.0000000  -0.0838702   0.0000000), wk =   0.0625000
        k(    4) = (   0.0379955   0.0000049   0.0000000), wk =   0.1250000
        k(    5) = (   0.0379955   0.0419400   0.0000000), wk =   0.1250000
        k(    6) = (   0.0379955  -0.0838652   0.0000000), wk =   0.1250000
        k(    7) = (   0.0379955  -0.0419301   0.0000000), wk =   0.1250000
        k(    8) = (  -0.0759910  -0.0000099   0.0000000), wk =   0.0625000
        k(    9) = (  -0.0759910   0.0419252   0.0000000), wk =   0.1250000
        k(   10) = (  -0.0759910  -0.0838800   0.0000000), wk =   0.0625000

     Dense  grid:   792059 G-vectors     FFT dimensions: (  75,  72, 300)

     Smooth grid:   200495 G-vectors     FFT dimensions: (  48,  45, 192)

     Estimated max dynamical RAM per process >     385.95 MB

     Estimated total dynamical RAM >       6.03 GB

     Check: negative core charge=   -0.000008
     Generating pointlists ...
     new r_m :   0.7405 (alat units)  1.3994 (a.u.) for type    1
     new r_m :   0.4626 (alat units)  0.8741 (a.u.) for type    2
     new r_m :   0.5092 (alat units)  0.9623 (a.u.) for type    3

     Initial potential from superposition of free atoms

     starting charge  377.99920, renormalised to  394.00000

     negative rho (up, down):  1.161E-02 1.161E-02


     %%%%%%%%%%%%%%%%%%%%%%%%%%%%%%%%%%%%%%%%%%%%%%%%%%%%%%%%%%%%%%%%%%%%%%%%
     %                                                                      %
     % You are using vdW-DF, which was implemented by the Thonhauser group. %
     % Please cite the following two papers that made this development      %
     % possible and the two reviews that describe the various versions:     %
     %                                                                      %
     %   T. Thonhauser et al., PRL 115, 136402 (2015).                      %
     %   T. Thonhauser et al., PRB 76, 125112 (2007).                       %
     %   K. Berland et al., Rep. Prog. Phys. 78, 066501 (2015).             %
     %   D.C. Langreth et al., J. Phys.: Condens. Matter 21, 084203 (2009). %
     %                                                                      %
     %                                                                      %
     % If you are calculating the stress with vdW-DF, please also cite:     %
     %                                                                      %
     %   R. Sabatini et al., J. Phys.: Condens. Matter 24, 424209 (2012).   %
     %                                                                      %
     %%%%%%%%%%%%%%%%%%%%%%%%%%%%%%%%%%%%%%%%%%%%%%%%%%%%%%%%%%%%%%%%%%%%%%%%


 
     Adding external electric field

     Computed dipole along edir(3) : 
        Dipole               -8.5086 Ry au,        -21.6267 Debye
        Dipole field         -0.0161 Ry au, 
 
        Potential amp.        1.4884 Ry
        Total length         46.3494 bohr
 
 
     Adding external electric field

     Computed dipole along edir(3) : 
        Dipole               -8.5086 Ry au,        -21.6267 Debye
        Dipole field         -0.0161 Ry au, 
 
        Potential amp.        1.4884 Ry
        Total length         46.3494 bohr
 
     Starting wfcs are  296 randomized atomic wfcs
     Checking if some PAW data can be deallocated... 
  @ DRIVER MODE: Message from server: STATUS
  @ DRIVER MODE: Message from server: POSDATA
  @ DRIVER MODE: Reading and sharing cell 
  @ DRIVER MODE: Reading and sharing positions 
  @ DRIVER MODE: Received positions 

     total cpu time spent up to now is       32.0 secs

     Self-consistent Calculation

     iteration #  1     ecut=    36.75 Ry     beta= 0.05
     Davidson diagonalization with overlap
     ethr =  1.00E-02,  avg # of iterations =  2.4

     negative rho (up, down):  1.062E-02 1.062E-02
 
     Adding external electric field

     Computed dipole along edir(3) : 
        Dipole               33.3008 Ry au,         84.6421 Debye
        Dipole field          0.0628 Ry au, 
 
        Potential amp.       -5.8255 Ry
        Total length         46.3494 bohr
 
 
     Adding external electric field

     Computed dipole along edir(3) : 
        Dipole               33.3008 Ry au,         84.6421 Debye
        Dipole field          0.0628 Ry au, 
 
        Potential amp.       -5.8255 Ry
        Total length         46.3494 bohr
 

     total cpu time spent up to now is       67.2 secs

     total energy              =   -3095.56849840 Ry
     estimated scf accuracy    <    2807.49873960 Ry

     total magnetization       =     0.01 Bohr mag/cell
     absolute magnetization    =     0.08 Bohr mag/cell

     iteration #  2     ecut=    36.75 Ry     beta= 0.05
     Davidson diagonalization with overlap
     ethr =  1.00E-02,  avg # of iterations = 16.1

     negative rho (up, down):  1.008E-02 1.008E-02
 
     Adding external electric field

     Computed dipole along edir(3) : 
        Dipole               -3.8596 Ry au,         -9.8102 Debye
        Dipole field         -0.0073 Ry au, 
 
        Potential amp.        0.6752 Ry
        Total length         46.3494 bohr
 
 
     Adding external electric field

     Computed dipole along edir(3) : 
        Dipole               -3.8596 Ry au,         -9.8102 Debye
        Dipole field         -0.0073 Ry au, 
 
        Potential amp.        0.6752 Ry
        Total length         46.3494 bohr
 

     total cpu time spent up to now is      185.7 secs

     total energy              =   -2905.35207729 Ry
     estimated scf accuracy    <   56147.36465158 Ry

     total magnetization       =     0.25 Bohr mag/cell
     absolute magnetization    =     0.73 Bohr mag/cell

     iteration #  3     ecut=    36.75 Ry     beta= 0.05
     Davidson diagonalization with overlap
     ethr =  1.00E-02,  avg # of iterations = 15.4

     negative rho (up, down):  9.923E-03 9.925E-03
 
     Adding external electric field

     Computed dipole along edir(3) : 
        Dipole               -5.1941 Ry au,        -13.2022 Debye
        Dipole field         -0.0098 Ry au, 
 
        Potential amp.        0.9086 Ry
        Total length         46.3494 bohr
 
 
     Adding external electric field

     Computed dipole along edir(3) : 
        Dipole               -5.1941 Ry au,        -13.2022 Debye
        Dipole field         -0.0098 Ry au, 
 
        Potential amp.        0.9086 Ry
        Total length         46.3494 bohr
 

     total cpu time spent up to now is      286.2 secs

     total energy              =   -3329.54924105 Ry
     estimated scf accuracy    <    2456.12571140 Ry

     total magnetization       =    -0.94 Bohr mag/cell
     absolute magnetization    =     1.24 Bohr mag/cell

     iteration #  4     ecut=    36.75 Ry     beta= 0.05
     Davidson diagonalization with overlap
     c_bands:  2 eigenvalues not converged
     ethr =  1.00E-02,  avg # of iterations = 14.2

     negative rho (up, down):  1.005E-02 1.005E-02
 
     Adding external electric field

     Computed dipole along edir(3) : 
        Dipole               -5.8583 Ry au,        -14.8903 Debye
        Dipole field         -0.0111 Ry au, 
 
        Potential amp.        1.0248 Ry
        Total length         46.3494 bohr
 
 
     Adding external electric field

     Computed dipole along edir(3) : 
        Dipole               -5.8583 Ry au,        -14.8903 Debye
        Dipole field         -0.0111 Ry au, 
 
        Potential amp.        1.0248 Ry
        Total length         46.3494 bohr
 

     total cpu time spent up to now is      319.3 secs

     total energy              =   -3335.81438366 Ry
     estimated scf accuracy    <     537.09242751 Ry

     total magnetization       =     0.71 Bohr mag/cell
     absolute magnetization    =     1.15 Bohr mag/cell

     iteration #  5     ecut=    36.75 Ry     beta= 0.05
     Davidson diagonalization with overlap
     ethr =  1.00E-02,  avg # of iterations =  7.5

     negative rho (up, down):  1.022E-02 1.022E-02
 
     Adding external electric field

     Computed dipole along edir(3) : 
        Dipole               -5.7780 Ry au,        -14.6862 Debye
        Dipole field         -0.0109 Ry au, 
 
        Potential amp.        1.0108 Ry
        Total length         46.3494 bohr
 
 
     Adding external electric field

     Computed dipole along edir(3) : 
        Dipole               -5.7780 Ry au,        -14.6862 Debye
        Dipole field         -0.0109 Ry au, 
 
        Potential amp.        1.0108 Ry
        Total length         46.3494 bohr
 

     total cpu time spent up to now is      344.5 secs

     total energy              =   -3343.35712722 Ry
     estimated scf accuracy    <      63.33767291 Ry

     total magnetization       =     0.92 Bohr mag/cell
     absolute magnetization    =     1.38 Bohr mag/cell

     iteration #  6     ecut=    36.75 Ry     beta= 0.05
     Davidson diagonalization with overlap
     ethr =  1.00E-02,  avg # of iterations =  6.3

     negative rho (up, down):  1.039E-02 1.038E-02
 
     Adding external electric field

     Computed dipole along edir(3) : 
        Dipole               -5.1596 Ry au,        -13.1145 Debye
        Dipole field         -0.0097 Ry au, 
 
        Potential amp.        0.9026 Ry
        Total length         46.3494 bohr
 
 
     Adding external electric field

     Computed dipole along edir(3) : 
        Dipole               -5.1596 Ry au,        -13.1145 Debye
        Dipole field         -0.0097 Ry au, 
 
        Potential amp.        0.9026 Ry
        Total length         46.3494 bohr
 

     total cpu time spent up to now is      367.9 secs

     total energy              =   -3345.90092160 Ry
     estimated scf accuracy    <      19.08272850 Ry

     total magnetization       =     0.05 Bohr mag/cell
     absolute magnetization    =     0.66 Bohr mag/cell

     iteration #  7     ecut=    36.75 Ry     beta= 0.05
     Davidson diagonalization with overlap
     ethr =  4.84E-03,  avg # of iterations =  4.7

     negative rho (up, down):  1.075E-02 1.074E-02
 
     Adding external electric field

     Computed dipole along edir(3) : 
        Dipole               -3.6819 Ry au,         -9.3584 Debye
        Dipole field         -0.0069 Ry au, 
 
        Potential amp.        0.6441 Ry
        Total length         46.3494 bohr
 
 
     Adding external electric field

     Computed dipole along edir(3) : 
        Dipole               -3.6819 Ry au,         -9.3584 Debye
        Dipole field         -0.0069 Ry au, 
 
        Potential amp.        0.6441 Ry
        Total length         46.3494 bohr
 

     total cpu time spent up to now is      390.7 secs

     total energy              =   -3346.26619657 Ry
     estimated scf accuracy    <      11.02680855 Ry

     total magnetization       =    -0.14 Bohr mag/cell
     absolute magnetization    =     0.33 Bohr mag/cell

     iteration #  8     ecut=    36.75 Ry     beta= 0.05
     Davidson diagonalization with overlap
     ethr =  2.80E-03,  avg # of iterations =  2.4

     negative rho (up, down):  1.125E-02 1.122E-02
 
     Adding external electric field

     Computed dipole along edir(3) : 
        Dipole               -1.6471 Ry au,         -4.1865 Debye
        Dipole field         -0.0031 Ry au, 
 
        Potential amp.        0.2881 Ry
        Total length         46.3494 bohr
 
 
     Adding external electric field

     Computed dipole along edir(3) : 
        Dipole               -1.6471 Ry au,         -4.1865 Debye
        Dipole field         -0.0031 Ry au, 
 
        Potential amp.        0.2881 Ry
        Total length         46.3494 bohr
 

     total cpu time spent up to now is      415.3 secs

     total energy              =   -3345.97696280 Ry
     estimated scf accuracy    <      16.09854967 Ry

     total magnetization       =    -0.15 Bohr mag/cell
     absolute magnetization    =     0.33 Bohr mag/cell

     iteration #  9     ecut=    36.75 Ry     beta= 0.05
     Davidson diagonalization with overlap
     ethr =  2.80E-03,  avg # of iterations =  9.7

     negative rho (up, down):  1.186E-02 1.182E-02
 
     Adding external electric field

     Computed dipole along edir(3) : 
        Dipole               -0.8691 Ry au,         -2.2090 Debye
        Dipole field         -0.0016 Ry au, 
 
        Potential amp.        0.1520 Ry
        Total length         46.3494 bohr
 
 
     Adding external electric field

     Computed dipole along edir(3) : 
        Dipole               -0.8691 Ry au,         -2.2090 Debye
        Dipole field         -0.0016 Ry au, 
 
        Potential amp.        0.1520 Ry
        Total length         46.3494 bohr
 

     total cpu time spent up to now is      445.8 secs

     total energy              =   -3350.71735965 Ry
     estimated scf accuracy    <     433.48924140 Ry

     total magnetization       =     0.05 Bohr mag/cell
     absolute magnetization    =     0.93 Bohr mag/cell

     iteration # 10     ecut=    36.75 Ry     beta= 0.05
     Davidson diagonalization with overlap
     ethr =  2.80E-03,  avg # of iterations =  7.3

     negative rho (up, down):  1.212E-02 1.205E-02
 
     Adding external electric field

     Computed dipole along edir(3) : 
        Dipole               -0.9375 Ry au,         -2.3829 Debye
        Dipole field         -0.0018 Ry au, 
 
        Potential amp.        0.1640 Ry
        Total length         46.3494 bohr
 
 
     Adding external electric field

     Computed dipole along edir(3) : 
        Dipole               -0.9375 Ry au,         -2.3829 Debye
        Dipole field         -0.0018 Ry au, 
 
        Potential amp.        0.1640 Ry
        Total length         46.3494 bohr
 

     total cpu time spent up to now is      469.4 secs

     total energy              =   -3348.18307200 Ry
     estimated scf accuracy    <     723.03723830 Ry

     total magnetization       =    -0.39 Bohr mag/cell
     absolute magnetization    =     1.27 Bohr mag/cell

     iteration # 11     ecut=    36.75 Ry     beta= 0.05
     Davidson diagonalization with overlap
     ethr =  2.80E-03,  avg # of iterations =  3.6

     negative rho (up, down):  1.185E-02 1.175E-02
 
     Adding external electric field

     Computed dipole along edir(3) : 
        Dipole               -2.3849 Ry au,         -6.0618 Debye
        Dipole field         -0.0045 Ry au, 
 
        Potential amp.        0.4172 Ry
        Total length         46.3494 bohr
 
 
     Adding external electric field

     Computed dipole along edir(3) : 
        Dipole               -2.3849 Ry au,         -6.0618 Debye
        Dipole field         -0.0045 Ry au, 
 
        Potential amp.        0.4172 Ry
        Total length         46.3494 bohr
 

     total cpu time spent up to now is      489.7 secs

     total energy              =   -3341.65921311 Ry
     estimated scf accuracy    <     401.84349874 Ry

     total magnetization       =    -0.43 Bohr mag/cell
     absolute magnetization    =     0.83 Bohr mag/cell

     iteration # 12     ecut=    36.75 Ry     beta= 0.05
     Davidson diagonalization with overlap
     ethr =  2.80E-03,  avg # of iterations = 11.7

     negative rho (up, down):  1.168E-02 1.159E-02
 
     Adding external electric field

     Computed dipole along edir(3) : 
        Dipole               -2.3985 Ry au,         -6.0964 Debye
        Dipole field         -0.0045 Ry au, 
 
        Potential amp.        0.4196 Ry
        Total length         46.3494 bohr
 
 
     Adding external electric field

     Computed dipole along edir(3) : 
        Dipole               -2.3985 Ry au,         -6.0964 Debye
        Dipole field         -0.0045 Ry au, 
 
        Potential amp.        0.4196 Ry
        Total length         46.3494 bohr
 

     total cpu time spent up to now is      517.3 secs

     total energy              =   -3344.58178659 Ry
     estimated scf accuracy    <      38.51739461 Ry

     total magnetization       =    -0.96 Bohr mag/cell
     absolute magnetization    =     1.04 Bohr mag/cell

     iteration # 13     ecut=    36.75 Ry     beta= 0.05
     Davidson diagonalization with overlap
     ethr =  2.80E-03,  avg # of iterations =  2.9

     negative rho (up, down):  1.149E-02 1.140E-02
 
     Adding external electric field

     Computed dipole along edir(3) : 
        Dipole               -2.4394 Ry au,         -6.2003 Debye
        Dipole field         -0.0046 Ry au, 
 
        Potential amp.        0.4267 Ry
        Total length         46.3494 bohr
 
 
     Adding external electric field

     Computed dipole along edir(3) : 
        Dipole               -2.4394 Ry au,         -6.2003 Debye
        Dipole field         -0.0046 Ry au, 
 
        Potential amp.        0.4267 Ry
        Total length         46.3494 bohr
 

     total cpu time spent up to now is      536.1 secs

     total energy              =   -3344.63095445 Ry
     estimated scf accuracy    <      24.39427094 Ry

     total magnetization       =    -0.14 Bohr mag/cell
     absolute magnetization    =     0.38 Bohr mag/cell

     iteration # 14     ecut=    36.75 Ry     beta= 0.05
     Davidson diagonalization with overlap
     ethr =  2.80E-03,  avg # of iterations =  1.4

     negative rho (up, down):  1.104E-02 1.094E-02
 
     Adding external electric field

     Computed dipole along edir(3) : 
        Dipole               -3.4288 Ry au,         -8.7151 Debye
        Dipole field         -0.0065 Ry au, 
 
        Potential amp.        0.5998 Ry
        Total length         46.3494 bohr
 
 
     Adding external electric field

     Computed dipole along edir(3) : 
        Dipole               -3.4288 Ry au,         -8.7151 Debye
        Dipole field         -0.0065 Ry au, 
 
        Potential amp.        0.5998 Ry
        Total length         46.3494 bohr
 

     total cpu time spent up to now is      553.9 secs

     total energy              =   -3343.33260644 Ry
     estimated scf accuracy    <      19.72748907 Ry

     total magnetization       =    -0.34 Bohr mag/cell
     absolute magnetization    =     0.54 Bohr mag/cell

     iteration # 15     ecut=    36.75 Ry     beta= 0.05
     Davidson diagonalization with overlap
     ethr =  2.80E-03,  avg # of iterations =  8.6

     negative rho (up, down):  1.116E-02 1.105E-02
 
     Adding external electric field

     Computed dipole along edir(3) : 
        Dipole               -2.8338 Ry au,         -7.2028 Debye
        Dipole field         -0.0053 Ry au, 
 
        Potential amp.        0.4957 Ry
        Total length         46.3494 bohr
 
 
     Adding external electric field

     Computed dipole along edir(3) : 
        Dipole               -2.8338 Ry au,         -7.2028 Debye
        Dipole field         -0.0053 Ry au, 
 
        Potential amp.        0.4957 Ry
        Total length         46.3494 bohr
 

     total cpu time spent up to now is      581.1 secs

     total energy              =   -3345.38237231 Ry
     estimated scf accuracy    <       7.25398802 Ry

     total magnetization       =    -0.18 Bohr mag/cell
     absolute magnetization    =     0.30 Bohr mag/cell

     iteration # 16     ecut=    36.75 Ry     beta= 0.05
     Davidson diagonalization with overlap
     ethr =  1.84E-03,  avg # of iterations =  1.4

     negative rho (up, down):  1.135E-02 1.123E-02
 
     Adding external electric field

     Computed dipole along edir(3) : 
        Dipole               -1.4785 Ry au,         -3.7580 Debye
        Dipole field         -0.0028 Ry au, 
 
        Potential amp.        0.2586 Ry
        Total length         46.3494 bohr
 
 
     Adding external electric field

     Computed dipole along edir(3) : 
        Dipole               -1.4785 Ry au,         -3.7580 Debye
        Dipole field         -0.0028 Ry au, 
 
        Potential amp.        0.2586 Ry
        Total length         46.3494 bohr
 

     total cpu time spent up to now is      599.3 secs

     total energy              =   -3344.87470549 Ry
     estimated scf accuracy    <       6.24124234 Ry

     total magnetization       =    -0.09 Bohr mag/cell
     absolute magnetization    =     0.23 Bohr mag/cell

     iteration # 17     ecut=    36.75 Ry     beta= 0.05
     Davidson diagonalization with overlap
     ethr =  1.58E-03,  avg # of iterations =  2.4

     negative rho (up, down):  1.135E-02 1.123E-02
 
     Adding external electric field

     Computed dipole along edir(3) : 
        Dipole               -0.9689 Ry au,         -2.4628 Debye
        Dipole field         -0.0018 Ry au, 
 
        Potential amp.        0.1695 Ry
        Total length         46.3494 bohr
 
 
     Adding external electric field

     Computed dipole along edir(3) : 
        Dipole               -0.9689 Ry au,         -2.4628 Debye
        Dipole field         -0.0018 Ry au, 
 
        Potential amp.        0.1695 Ry
        Total length         46.3494 bohr
 

     total cpu time spent up to now is      619.2 secs

     total energy              =   -3345.14909976 Ry
     estimated scf accuracy    <       0.61622446 Ry

     total magnetization       =    -0.06 Bohr mag/cell
     absolute magnetization    =     0.16 Bohr mag/cell

     iteration # 18     ecut=    36.75 Ry     beta= 0.05
     Davidson diagonalization with overlap
     c_bands:  2 eigenvalues not converged
     c_bands:  1 eigenvalues not converged
     c_bands:  1 eigenvalues not converged
     ethr =  1.56E-04,  avg # of iterations = 14.5

     negative rho (up, down):  1.109E-02 1.098E-02
 
     Adding external electric field

     Computed dipole along edir(3) : 
        Dipole               -1.4521 Ry au,         -3.6908 Debye
        Dipole field         -0.0027 Ry au, 
 
        Potential amp.        0.2540 Ry
        Total length         46.3494 bohr
 
 
     Adding external electric field

     Computed dipole along edir(3) : 
        Dipole               -1.4521 Ry au,         -3.6908 Debye
        Dipole field         -0.0027 Ry au, 
 
        Potential amp.        0.2540 Ry
        Total length         46.3494 bohr
 

     total cpu time spent up to now is      654.0 secs

     total energy              =   -3345.09128577 Ry
     estimated scf accuracy    <       1.01594981 Ry

     total magnetization       =    -0.10 Bohr mag/cell
     absolute magnetization    =     0.18 Bohr mag/cell

     iteration # 19     ecut=    36.75 Ry     beta= 0.05
     Davidson diagonalization with overlap
     ethr =  1.56E-04,  avg # of iterations =  5.5

     negative rho (up, down):  1.109E-02 1.098E-02
 
     Adding external electric field

     Computed dipole along edir(3) : 
        Dipole               -1.4632 Ry au,         -3.7190 Debye
        Dipole field         -0.0028 Ry au, 
 
        Potential amp.        0.2560 Ry
        Total length         46.3494 bohr
 
 
     Adding external electric field

     Computed dipole along edir(3) : 
        Dipole               -1.4632 Ry au,         -3.7190 Debye
        Dipole field         -0.0028 Ry au, 
 
        Potential amp.        0.2560 Ry
        Total length         46.3494 bohr
 

     total cpu time spent up to now is      679.2 secs

     total energy              =   -3345.15252067 Ry
     estimated scf accuracy    <       0.88385476 Ry

     total magnetization       =    -0.12 Bohr mag/cell
     absolute magnetization    =     0.17 Bohr mag/cell

     iteration # 20     ecut=    36.75 Ry     beta= 0.05
     Davidson diagonalization with overlap
     ethr =  1.56E-04,  avg # of iterations =  1.0

     negative rho (up, down):  1.075E-02 1.064E-02
 
     Adding external electric field

     Computed dipole along edir(3) : 
        Dipole               -1.1664 Ry au,         -2.9648 Debye
        Dipole field         -0.0022 Ry au, 
 
        Potential amp.        0.2041 Ry
        Total length         46.3494 bohr
 
 
     Adding external electric field

     Computed dipole along edir(3) : 
        Dipole               -1.1664 Ry au,         -2.9648 Debye
        Dipole field         -0.0022 Ry au, 
 
        Potential amp.        0.2041 Ry
        Total length         46.3494 bohr
 

     total cpu time spent up to now is      696.9 secs

     total energy              =   -3345.08337087 Ry
     estimated scf accuracy    <       0.53798785 Ry

     total magnetization       =    -0.21 Bohr mag/cell
     absolute magnetization    =     0.26 Bohr mag/cell

     iteration # 21     ecut=    36.75 Ry     beta= 0.05
     Davidson diagonalization with overlap
     c_bands:  1 eigenvalues not converged
     c_bands:  1 eigenvalues not converged
     ethr =  1.37E-04,  avg # of iterations = 10.3

     negative rho (up, down):  1.067E-02 1.057E-02
 
     Adding external electric field

     Computed dipole along edir(3) : 
        Dipole               -0.6845 Ry au,         -1.7399 Debye
        Dipole field         -0.0013 Ry au, 
 
        Potential amp.        0.1197 Ry
        Total length         46.3494 bohr
 
 
     Adding external electric field

     Computed dipole along edir(3) : 
        Dipole               -0.6845 Ry au,         -1.7399 Debye
        Dipole field         -0.0013 Ry au, 
 
        Potential amp.        0.1197 Ry
        Total length         46.3494 bohr
 

     total cpu time spent up to now is      723.3 secs

     total energy              =   -3345.07111561 Ry
     estimated scf accuracy    <       1.90430321 Ry

     total magnetization       =    -0.16 Bohr mag/cell
     absolute magnetization    =     0.30 Bohr mag/cell

     iteration # 22     ecut=    36.75 Ry     beta= 0.05
     Davidson diagonalization with overlap
     ethr =  1.37E-04,  avg # of iterations =  1.4

     negative rho (up, down):  1.084E-02 1.072E-02
 
     Adding external electric field

     Computed dipole along edir(3) : 
        Dipole                0.4042 Ry au,          1.0273 Debye
        Dipole field          0.0008 Ry au, 
 
        Potential amp.       -0.0707 Ry
        Total length         46.3494 bohr
 
 
     Adding external electric field

     Computed dipole along edir(3) : 
        Dipole                0.4042 Ry au,          1.0273 Debye
        Dipole field          0.0008 Ry au, 
 
        Potential amp.       -0.0707 Ry
        Total length         46.3494 bohr
 

     total cpu time spent up to now is      743.3 secs

     total energy              =   -3345.05041366 Ry
     estimated scf accuracy    <       0.60159847 Ry

     total magnetization       =    -0.29 Bohr mag/cell
     absolute magnetization    =     0.33 Bohr mag/cell

     iteration # 23     ecut=    36.75 Ry     beta= 0.05
     Davidson diagonalization with overlap
     c_bands:  1 eigenvalues not converged
     c_bands:  1 eigenvalues not converged
     ethr =  1.37E-04,  avg # of iterations = 12.9

     negative rho (up, down):  1.081E-02 1.069E-02
 
     Adding external electric field

     Computed dipole along edir(3) : 
        Dipole                0.4200 Ry au,          1.0675 Debye
        Dipole field          0.0008 Ry au, 
 
        Potential amp.       -0.0735 Ry
        Total length         46.3494 bohr
 
 
     Adding external electric field

     Computed dipole along edir(3) : 
        Dipole                0.4200 Ry au,          1.0675 Debye
        Dipole field          0.0008 Ry au, 
 
        Potential amp.       -0.0735 Ry
        Total length         46.3494 bohr
 

     total cpu time spent up to now is      775.6 secs

     total energy              =   -3345.29120332 Ry
     estimated scf accuracy    <      48.47881297 Ry

     total magnetization       =    -0.21 Bohr mag/cell
     absolute magnetization    =     0.27 Bohr mag/cell

     iteration # 24     ecut=    36.75 Ry     beta= 0.05
     Davidson diagonalization with overlap
     ethr =  1.37E-04,  avg # of iterations =  1.1

     negative rho (up, down):  1.072E-02 1.061E-02
 
     Adding external electric field

     Computed dipole along edir(3) : 
        Dipole                0.2025 Ry au,          0.5146 Debye
        Dipole field          0.0004 Ry au, 
 
        Potential amp.       -0.0354 Ry
        Total length         46.3494 bohr
 
 
     Adding external electric field

     Computed dipole along edir(3) : 
        Dipole                0.2025 Ry au,          0.5146 Debye
        Dipole field          0.0004 Ry au, 
 
        Potential amp.       -0.0354 Ry
        Total length         46.3494 bohr
 

     total cpu time spent up to now is      793.3 secs

     total energy              =   -3345.02617206 Ry
     estimated scf accuracy    <      45.20046038 Ry

     total magnetization       =    -0.23 Bohr mag/cell
     absolute magnetization    =     0.29 Bohr mag/cell

     iteration # 25     ecut=    36.75 Ry     beta= 0.05
     Davidson diagonalization with overlap
     ethr =  1.37E-04,  avg # of iterations =  5.2

     negative rho (up, down):  1.056E-02 1.044E-02
 
     Adding external electric field

     Computed dipole along edir(3) : 
        Dipole               -0.0249 Ry au,         -0.0633 Debye
        Dipole field         -0.0000 Ry au, 
 
        Potential amp.        0.0044 Ry
        Total length         46.3494 bohr
 
 
     Adding external electric field

     Computed dipole along edir(3) : 
        Dipole               -0.0249 Ry au,         -0.0633 Debye
        Dipole field         -0.0000 Ry au, 
 
        Potential amp.        0.0044 Ry
        Total length         46.3494 bohr
 

     total cpu time spent up to now is      835.7 secs

     total energy              =   -3345.05872029 Ry
     estimated scf accuracy    <       1.09267652 Ry

     total magnetization       =    -0.37 Bohr mag/cell
     absolute magnetization    =     0.42 Bohr mag/cell

     iteration # 26     ecut=    36.75 Ry     beta= 0.05
     Davidson diagonalization with overlap
     ethr =  1.37E-04,  avg # of iterations =  5.0

     negative rho (up, down):  1.040E-02 1.025E-02
 
     Adding external electric field

     Computed dipole along edir(3) : 
        Dipole                0.3446 Ry au,          0.8758 Debye
        Dipole field          0.0007 Ry au, 
 
        Potential amp.       -0.0603 Ry
        Total length         46.3494 bohr
 
 
     Adding external electric field

     Computed dipole along edir(3) : 
        Dipole                0.3446 Ry au,          0.8758 Debye
        Dipole field          0.0007 Ry au, 
 
        Potential amp.       -0.0603 Ry
        Total length         46.3494 bohr
 

     total cpu time spent up to now is      857.5 secs

     total energy              =   -3345.08777912 Ry
     estimated scf accuracy    <       0.34830288 Ry

     total magnetization       =    -0.49 Bohr mag/cell
     absolute magnetization    =     0.52 Bohr mag/cell

     iteration # 27     ecut=    36.75 Ry     beta= 0.05
     Davidson diagonalization with overlap
     ethr =  8.84E-05,  avg # of iterations =  2.9

     negative rho (up, down):  1.036E-02 1.018E-02
 
     Adding external electric field

     Computed dipole along edir(3) : 
        Dipole                0.5223 Ry au,          1.3275 Debye
        Dipole field          0.0010 Ry au, 
 
        Potential amp.       -0.0914 Ry
        Total length         46.3494 bohr
 
 
     Adding external electric field

     Computed dipole along edir(3) : 
        Dipole                0.5223 Ry au,          1.3275 Debye
        Dipole field          0.0010 Ry au, 
 
        Potential amp.       -0.0914 Ry
        Total length         46.3494 bohr
 

     total cpu time spent up to now is      878.7 secs

     total energy              =   -3345.09600797 Ry
     estimated scf accuracy    <       0.31335076 Ry

     total magnetization       =    -0.68 Bohr mag/cell
     absolute magnetization    =     0.71 Bohr mag/cell

     iteration # 28     ecut=    36.75 Ry     beta= 0.05
     Davidson diagonalization with overlap
     ethr =  7.95E-05,  avg # of iterations =  3.2

     negative rho (up, down):  1.038E-02 1.013E-02
 
     Adding external electric field

     Computed dipole along edir(3) : 
        Dipole                0.7088 Ry au,          1.8016 Debye
        Dipole field          0.0013 Ry au, 
 
        Potential amp.       -0.1240 Ry
        Total length         46.3494 bohr
 
 
     Adding external electric field

     Computed dipole along edir(3) : 
        Dipole                0.7088 Ry au,          1.8016 Debye
        Dipole field          0.0013 Ry au, 
 
        Potential amp.       -0.1240 Ry
        Total length         46.3494 bohr
 

     total cpu time spent up to now is      898.3 secs

     total energy              =   -3345.10066929 Ry
     estimated scf accuracy    <       0.29537846 Ry

     total magnetization       =    -0.85 Bohr mag/cell
     absolute magnetization    =     0.88 Bohr mag/cell

     iteration # 29     ecut=    36.75 Ry     beta= 0.05
     Davidson diagonalization with overlap
     ethr =  7.50E-05,  avg # of iterations =  2.0

     negative rho (up, down):  1.038E-02 1.009E-02
 
     Adding external electric field

     Computed dipole along edir(3) : 
        Dipole                0.8224 Ry au,          2.0902 Debye
        Dipole field          0.0016 Ry au, 
 
        Potential amp.       -0.1439 Ry
        Total length         46.3494 bohr
 
 
     Adding external electric field

     Computed dipole along edir(3) : 
        Dipole                0.8224 Ry au,          2.0902 Debye
        Dipole field          0.0016 Ry au, 
 
        Potential amp.       -0.1439 Ry
        Total length         46.3494 bohr
 

     total cpu time spent up to now is      921.3 secs

     total energy              =   -3345.10946621 Ry
     estimated scf accuracy    <       0.33118953 Ry

     total magnetization       =    -1.12 Bohr mag/cell
     absolute magnetization    =     1.15 Bohr mag/cell

     iteration # 30     ecut=    36.75 Ry     beta= 0.05
     Davidson diagonalization with overlap
     ethr =  7.50E-05,  avg # of iterations =  2.3

     negative rho (up, down):  1.040E-02 1.002E-02
 
     Adding external electric field

     Computed dipole along edir(3) : 
        Dipole                0.9812 Ry au,          2.4941 Debye
        Dipole field          0.0019 Ry au, 
 
        Potential amp.       -0.1717 Ry
        Total length         46.3494 bohr
 
 
     Adding external electric field

     Computed dipole along edir(3) : 
        Dipole                0.9812 Ry au,          2.4941 Debye
        Dipole field          0.0019 Ry au, 
 
        Potential amp.       -0.1717 Ry
        Total length         46.3494 bohr
 

     total cpu time spent up to now is      941.0 secs

     total energy              =   -3345.12268094 Ry
     estimated scf accuracy    <       0.38304659 Ry

     total magnetization       =    -1.27 Bohr mag/cell
     absolute magnetization    =     1.31 Bohr mag/cell

     iteration # 31     ecut=    36.75 Ry     beta= 0.05
     Davidson diagonalization with overlap
     ethr =  7.50E-05,  avg # of iterations =  4.8

     negative rho (up, down):  1.042E-02 9.990E-03
 
     Adding external electric field

     Computed dipole along edir(3) : 
        Dipole                0.9077 Ry au,          2.3071 Debye
        Dipole field          0.0017 Ry au, 
 
        Potential amp.       -0.1588 Ry
        Total length         46.3494 bohr
 
 
     Adding external electric field

     Computed dipole along edir(3) : 
        Dipole                0.9077 Ry au,          2.3071 Debye
        Dipole field          0.0017 Ry au, 
 
        Potential amp.       -0.1588 Ry
        Total length         46.3494 bohr
 

     total cpu time spent up to now is      966.5 secs

     total energy              =   -3345.12411917 Ry
     estimated scf accuracy    <       0.55132623 Ry

     total magnetization       =    -1.56 Bohr mag/cell
     absolute magnetization    =     1.59 Bohr mag/cell

     iteration # 32     ecut=    36.75 Ry     beta= 0.05
     Davidson diagonalization with overlap
     ethr =  7.50E-05,  avg # of iterations =  1.1

     negative rho (up, down):  1.043E-02 9.982E-03
 
     Adding external electric field

     Computed dipole along edir(3) : 
        Dipole                0.8413 Ry au,          2.1383 Debye
        Dipole field          0.0016 Ry au, 
 
        Potential amp.       -0.1472 Ry
        Total length         46.3494 bohr
 
 
     Adding external electric field

     Computed dipole along edir(3) : 
        Dipole                0.8413 Ry au,          2.1383 Debye
        Dipole field          0.0016 Ry au, 
 
        Potential amp.       -0.1472 Ry
        Total length         46.3494 bohr
 

     total cpu time spent up to now is      989.1 secs

     total energy              =   -3345.12087975 Ry
     estimated scf accuracy    <       0.56347310 Ry

     total magnetization       =    -1.68 Bohr mag/cell
     absolute magnetization    =     1.71 Bohr mag/cell

     iteration # 33     ecut=    36.75 Ry     beta= 0.05
     Davidson diagonalization with overlap
     ethr =  7.50E-05,  avg # of iterations =  1.0

     negative rho (up, down):  1.018E-02 1.044E-02
 
     Adding external electric field

     Computed dipole along edir(3) : 
        Dipole                0.2124 Ry au,          0.5398 Debye
        Dipole field          0.0004 Ry au, 
 
        Potential amp.       -0.0371 Ry
        Total length         46.3494 bohr
 
 
     Adding external electric field

     Computed dipole along edir(3) : 
        Dipole                0.2124 Ry au,          0.5398 Debye
        Dipole field          0.0004 Ry au, 
 
        Potential amp.       -0.0371 Ry
        Total length         46.3494 bohr
 

     total cpu time spent up to now is     1006.6 secs

     total energy              =   -3345.03749179 Ry
     estimated scf accuracy    <       0.56208853 Ry

     total magnetization       =    -1.75 Bohr mag/cell
     absolute magnetization    =     1.79 Bohr mag/cell

     iteration # 34     ecut=    36.75 Ry     beta= 0.05
     Davidson diagonalization with overlap
     c_bands:  2 eigenvalues not converged
     c_bands:  1 eigenvalues not converged
     c_bands:  2 eigenvalues not converged
     ethr =  7.50E-05,  avg # of iterations = 16.9

     negative rho (up, down):  1.034E-02 1.031E-02
 
     Adding external electric field

     Computed dipole along edir(3) : 
        Dipole                0.1764 Ry au,          0.4483 Debye
        Dipole field          0.0003 Ry au, 
 
        Potential amp.       -0.0309 Ry
        Total length         46.3494 bohr
 
 
     Adding external electric field

     Computed dipole along edir(3) : 
        Dipole                0.1764 Ry au,          0.4483 Debye
        Dipole field          0.0003 Ry au, 
 
        Potential amp.       -0.0309 Ry
        Total length         46.3494 bohr
 

     total cpu time spent up to now is     1056.0 secs

     total energy              =   -3345.00589201 Ry
     estimated scf accuracy    <       4.74511187 Ry

     total magnetization       =     0.00 Bohr mag/cell
     absolute magnetization    =     0.10 Bohr mag/cell

     iteration # 35     ecut=    36.75 Ry     beta= 0.05
     Davidson diagonalization with overlap
     c_bands:  1 eigenvalues not converged
     c_bands:  3 eigenvalues not converged
     c_bands:  3 eigenvalues not converged
     c_bands:  1 eigenvalues not converged
     c_bands:  1 eigenvalues not converged
     c_bands:  1 eigenvalues not converged
     c_bands:  2 eigenvalues not converged
     ethr =  7.50E-05,  avg # of iterations = 13.6

     negative rho (up, down):  1.031E-02 1.018E-02
 
     Adding external electric field

     Computed dipole along edir(3) : 
        Dipole                0.3287 Ry au,          0.8356 Debye
        Dipole field          0.0006 Ry au, 
 
        Potential amp.       -0.0575 Ry
        Total length         46.3494 bohr
 
 
     Adding external electric field

     Computed dipole along edir(3) : 
        Dipole                0.3287 Ry au,          0.8356 Debye
        Dipole field          0.0006 Ry au, 
 
        Potential amp.       -0.0575 Ry
        Total length         46.3494 bohr
 

     total cpu time spent up to now is     1084.5 secs

     total energy              =   -3345.08826510 Ry
     estimated scf accuracy    <       0.19974150 Ry

     total magnetization       =    -0.10 Bohr mag/cell
     absolute magnetization    =     0.20 Bohr mag/cell

     iteration # 36     ecut=    36.75 Ry     beta= 0.05
     Davidson diagonalization with overlap
     c_bands:  1 eigenvalues not converged
     ethr =  5.07E-05,  avg # of iterations =  3.0

     negative rho (up, down):  1.032E-02 1.024E-02
 
     Adding external electric field

     Computed dipole along edir(3) : 
        Dipole                0.2897 Ry au,          0.7364 Debye
        Dipole field          0.0005 Ry au, 
 
        Potential amp.       -0.0507 Ry
        Total length         46.3494 bohr
 
 
     Adding external electric field

     Computed dipole along edir(3) : 
        Dipole                0.2897 Ry au,          0.7364 Debye
        Dipole field          0.0005 Ry au, 
 
        Potential amp.       -0.0507 Ry
        Total length         46.3494 bohr
 

     total cpu time spent up to now is     1104.4 secs

     total energy              =   -3345.08478234 Ry
     estimated scf accuracy    <       0.20830621 Ry

     total magnetization       =    -0.63 Bohr mag/cell
     absolute magnetization    =     0.65 Bohr mag/cell

     iteration # 37     ecut=    36.75 Ry     beta= 0.05
     Davidson diagonalization with overlap
     ethr =  5.07E-05,  avg # of iterations =  1.8

     negative rho (up, down):  1.031E-02 1.034E-02
 
     Adding external electric field

     Computed dipole along edir(3) : 
        Dipole                0.2136 Ry au,          0.5430 Debye
        Dipole field          0.0004 Ry au, 
 
        Potential amp.       -0.0374 Ry
        Total length         46.3494 bohr
 
 
     Adding external electric field

     Computed dipole along edir(3) : 
        Dipole                0.2136 Ry au,          0.5430 Debye
        Dipole field          0.0004 Ry au, 
 
        Potential amp.       -0.0374 Ry
        Total length         46.3494 bohr
 

     total cpu time spent up to now is     1123.3 secs

     total energy              =   -3345.07890928 Ry
     estimated scf accuracy    <       0.17674981 Ry

     total magnetization       =    -0.37 Bohr mag/cell
     absolute magnetization    =     0.39 Bohr mag/cell

     iteration # 38     ecut=    36.75 Ry     beta= 0.05
     Davidson diagonalization with overlap
     ethr =  4.49E-05,  avg # of iterations =  2.1

     negative rho (up, down):  1.023E-02 1.033E-02
 
     Adding external electric field

     Computed dipole along edir(3) : 
        Dipole                0.3721 Ry au,          0.9458 Debye
        Dipole field          0.0007 Ry au, 
 
        Potential amp.       -0.0651 Ry
        Total length         46.3494 bohr
 
 
     Adding external electric field

     Computed dipole along edir(3) : 
        Dipole                0.3721 Ry au,          0.9458 Debye
        Dipole field          0.0007 Ry au, 
 
        Potential amp.       -0.0651 Ry
        Total length         46.3494 bohr
 

     total cpu time spent up to now is     1142.5 secs

     total energy              =   -3345.08336000 Ry
     estimated scf accuracy    <       0.10319050 Ry

     total magnetization       =     0.39 Bohr mag/cell
     absolute magnetization    =     0.43 Bohr mag/cell

     iteration # 39     ecut=    36.75 Ry     beta= 0.05
     Davidson diagonalization with overlap
     c_bands:  2 eigenvalues not converged
     ethr =  2.62E-05,  avg # of iterations =  4.8

     negative rho (up, down):  1.029E-02 1.026E-02
 
     Adding external electric field

     Computed dipole along edir(3) : 
        Dipole                0.1826 Ry au,          0.4641 Debye
        Dipole field          0.0003 Ry au, 
 
        Potential amp.       -0.0319 Ry
        Total length         46.3494 bohr
 
 
     Adding external electric field

     Computed dipole along edir(3) : 
        Dipole                0.1826 Ry au,          0.4641 Debye
        Dipole field          0.0003 Ry au, 
 
        Potential amp.       -0.0319 Ry
        Total length         46.3494 bohr
 

     total cpu time spent up to now is     1163.2 secs

     total energy              =   -3345.08237868 Ry
     estimated scf accuracy    <       0.06409272 Ry

     total magnetization       =     0.75 Bohr mag/cell
     absolute magnetization    =     0.78 Bohr mag/cell

     iteration # 40     ecut=    36.75 Ry     beta= 0.05
     Davidson diagonalization with overlap
     ethr =  1.63E-05,  avg # of iterations =  6.8

     negative rho (up, down):  1.034E-02 1.018E-02
 
     Adding external electric field

     Computed dipole along edir(3) : 
        Dipole                0.1926 Ry au,          0.4896 Debye
        Dipole field          0.0004 Ry au, 
 
        Potential amp.       -0.0337 Ry
        Total length         46.3494 bohr
 
 
     Adding external electric field

     Computed dipole along edir(3) : 
        Dipole                0.1926 Ry au,          0.4896 Debye
        Dipole field          0.0004 Ry au, 
 
        Potential amp.       -0.0337 Ry
        Total length         46.3494 bohr
 

     total cpu time spent up to now is     1185.7 secs

     total energy              =   -3345.08127702 Ry
     estimated scf accuracy    <       0.40926648 Ry

     total magnetization       =     0.04 Bohr mag/cell
     absolute magnetization    =     0.19 Bohr mag/cell

     iteration # 41     ecut=    36.75 Ry     beta= 0.05
     Davidson diagonalization with overlap
     ethr =  1.63E-05,  avg # of iterations =  2.6

     negative rho (up, down):  1.038E-02 1.011E-02
 
     Adding external electric field

     Computed dipole along edir(3) : 
        Dipole                0.1937 Ry au,          0.4923 Debye
        Dipole field          0.0004 Ry au, 
 
        Potential amp.       -0.0339 Ry
        Total length         46.3494 bohr
 
 
     Adding external electric field

     Computed dipole along edir(3) : 
        Dipole                0.1937 Ry au,          0.4923 Debye
        Dipole field          0.0004 Ry au, 
 
        Potential amp.       -0.0339 Ry
        Total length         46.3494 bohr
 

     total cpu time spent up to now is     1205.1 secs

     total energy              =   -3345.08126511 Ry
     estimated scf accuracy    <       0.08249667 Ry

     total magnetization       =    -0.67 Bohr mag/cell
     absolute magnetization    =     0.71 Bohr mag/cell

     iteration # 42     ecut=    36.75 Ry     beta= 0.05
     Davidson diagonalization with overlap
     ethr =  1.63E-05,  avg # of iterations =  2.5

     negative rho (up, down):  1.039E-02 9.978E-03
 
     Adding external electric field

     Computed dipole along edir(3) : 
        Dipole                0.3105 Ry au,          0.7892 Debye
        Dipole field          0.0006 Ry au, 
 
        Potential amp.       -0.0543 Ry
        Total length         46.3494 bohr
 
 
     Adding external electric field

     Computed dipole along edir(3) : 
        Dipole                0.3105 Ry au,          0.7892 Debye
        Dipole field          0.0006 Ry au, 
 
        Potential amp.       -0.0543 Ry
        Total length         46.3494 bohr
 

     total cpu time spent up to now is     1224.1 secs

     total energy              =   -3345.07815337 Ry
     estimated scf accuracy    <       0.03616994 Ry

     total magnetization       =    -1.16 Bohr mag/cell
     absolute magnetization    =     1.20 Bohr mag/cell

     iteration # 43     ecut=    36.75 Ry     beta= 0.05
     Davidson diagonalization with overlap
     c_bands:  1 eigenvalues not converged
     c_bands:  1 eigenvalues not converged
     c_bands:  2 eigenvalues not converged
     c_bands:  2 eigenvalues not converged
     c_bands:  1 eigenvalues not converged
     c_bands:  1 eigenvalues not converged
     ethr =  9.18E-06,  avg # of iterations = 16.4

     negative rho (up, down):  1.040E-02 9.910E-03
 
     Adding external electric field

     Computed dipole along edir(3) : 
        Dipole                0.3087 Ry au,          0.7845 Debye
        Dipole field          0.0006 Ry au, 
 
        Potential amp.       -0.0540 Ry
        Total length         46.3494 bohr
 
 
     Adding external electric field

     Computed dipole along edir(3) : 
        Dipole                0.3087 Ry au,          0.7845 Debye
        Dipole field          0.0006 Ry au, 
 
        Potential amp.       -0.0540 Ry
        Total length         46.3494 bohr
 

     total cpu time spent up to now is     1263.0 secs

     total energy              =   -3345.07951331 Ry
     estimated scf accuracy    <       0.11600744 Ry

     total magnetization       =    -0.90 Bohr mag/cell
     absolute magnetization    =     0.95 Bohr mag/cell

     iteration # 44     ecut=    36.75 Ry     beta= 0.05
     Davidson diagonalization with overlap
     c_bands:  1 eigenvalues not converged
     c_bands:  1 eigenvalues not converged
     c_bands:  1 eigenvalues not converged
     ethr =  9.18E-06,  avg # of iterations =  9.8

     negative rho (up, down):  1.036E-02 9.840E-03
 
     Adding external electric field

     Computed dipole along edir(3) : 
        Dipole                0.3421 Ry au,          0.8696 Debye
        Dipole field          0.0006 Ry au, 
 
        Potential amp.       -0.0599 Ry
        Total length         46.3494 bohr
 
 
     Adding external electric field

     Computed dipole along edir(3) : 
        Dipole                0.3421 Ry au,          0.8696 Debye
        Dipole field          0.0006 Ry au, 
 
        Potential amp.       -0.0599 Ry
        Total length         46.3494 bohr
 

     total cpu time spent up to now is     1288.2 secs

     total energy              =   -3345.08266534 Ry
     estimated scf accuracy    <       0.04789502 Ry

     total magnetization       =    -1.48 Bohr mag/cell
     absolute magnetization    =     1.52 Bohr mag/cell

     iteration # 45     ecut=    36.75 Ry     beta= 0.05
     Davidson diagonalization with overlap
     c_bands:  1 eigenvalues not converged
     c_bands:  1 eigenvalues not converged
     ethr =  9.18E-06,  avg # of iterations = 11.0

     negative rho (up, down):  1.036E-02 9.817E-03
 
     Adding external electric field

     Computed dipole along edir(3) : 
        Dipole                0.3548 Ry au,          0.9019 Debye
        Dipole field          0.0007 Ry au, 
 
        Potential amp.       -0.0621 Ry
        Total length         46.3494 bohr
 
 
     Adding external electric field

     Computed dipole along edir(3) : 
        Dipole                0.3548 Ry au,          0.9019 Debye
        Dipole field          0.0007 Ry au, 
 
        Potential amp.       -0.0621 Ry
        Total length         46.3494 bohr
 

     total cpu time spent up to now is     1413.6 secs

     total energy              =   -3345.08380554 Ry
     estimated scf accuracy    <       0.01221343 Ry

     total magnetization       =    -1.38 Bohr mag/cell
     absolute magnetization    =     1.48 Bohr mag/cell

     iteration # 46     ecut=    36.75 Ry     beta= 0.05
     Davidson diagonalization with overlap
     c_bands:  1 eigenvalues not converged
     ethr =  3.10E-06,  avg # of iterations =  8.0

     negative rho (up, down):  1.037E-02 9.785E-03
 
     Adding external electric field

     Computed dipole along edir(3) : 
        Dipole                0.4405 Ry au,          1.1197 Debye
        Dipole field          0.0008 Ry au, 
 
        Potential amp.       -0.0771 Ry
        Total length         46.3494 bohr
 
 
     Adding external electric field

     Computed dipole along edir(3) : 
        Dipole                0.4405 Ry au,          1.1197 Debye
        Dipole field          0.0008 Ry au, 
 
        Potential amp.       -0.0771 Ry
        Total length         46.3494 bohr
 

     total cpu time spent up to now is     1459.2 secs

     total energy              =   -3345.08452826 Ry
     estimated scf accuracy    <       0.01250259 Ry

     total magnetization       =    -1.28 Bohr mag/cell
     absolute magnetization    =     1.39 Bohr mag/cell

     iteration # 47     ecut=    36.75 Ry     beta= 0.05
     Davidson diagonalization with overlap
     c_bands:  1 eigenvalues not converged
     c_bands:  2 eigenvalues not converged
     c_bands:  1 eigenvalues not converged
     c_bands:  2 eigenvalues not converged
     ethr =  3.10E-06,  avg # of iterations = 11.8

     negative rho (up, down):  1.036E-02 9.790E-03
 
     Adding external electric field

     Computed dipole along edir(3) : 
        Dipole                0.4143 Ry au,          1.0530 Debye
        Dipole field          0.0008 Ry au, 
 
        Potential amp.       -0.0725 Ry
        Total length         46.3494 bohr
 
 
     Adding external electric field

     Computed dipole along edir(3) : 
        Dipole                0.4143 Ry au,          1.0530 Debye
        Dipole field          0.0008 Ry au, 
 
        Potential amp.       -0.0725 Ry
        Total length         46.3494 bohr
 

     total cpu time spent up to now is     1497.1 secs

     total energy              =   -3345.08524524 Ry
     estimated scf accuracy    <       0.03330761 Ry

     total magnetization       =    -1.24 Bohr mag/cell
     absolute magnetization    =     1.35 Bohr mag/cell

     iteration # 48     ecut=    36.75 Ry     beta= 0.05
     Davidson diagonalization with overlap
     ethr =  3.10E-06,  avg # of iterations =  1.9

     negative rho (up, down):  1.038E-02 9.758E-03
 
     Adding external electric field

     Computed dipole along edir(3) : 
        Dipole                0.4416 Ry au,          1.1224 Debye
        Dipole field          0.0008 Ry au, 
 
        Potential amp.       -0.0772 Ry
        Total length         46.3494 bohr
 
 
     Adding external electric field

     Computed dipole along edir(3) : 
        Dipole                0.4416 Ry au,          1.1224 Debye
        Dipole field          0.0008 Ry au, 
 
        Potential amp.       -0.0772 Ry
        Total length         46.3494 bohr
 

     total cpu time spent up to now is     1518.6 secs

     total energy              =   -3345.08591073 Ry
     estimated scf accuracy    <       0.01693663 Ry

     total magnetization       =    -1.30 Bohr mag/cell
     absolute magnetization    =     1.40 Bohr mag/cell

     iteration # 49     ecut=    36.75 Ry     beta= 0.05
     Davidson diagonalization with overlap
     ethr =  3.10E-06,  avg # of iterations =  1.0

     negative rho (up, down):  1.040E-02 9.737E-03
 
     Adding external electric field

     Computed dipole along edir(3) : 
        Dipole                0.4344 Ry au,          1.1041 Debye
        Dipole field          0.0008 Ry au, 
 
        Potential amp.       -0.0760 Ry
        Total length         46.3494 bohr
 
 
     Adding external electric field

     Computed dipole along edir(3) : 
        Dipole                0.4344 Ry au,          1.1041 Debye
        Dipole field          0.0008 Ry au, 
 
        Potential amp.       -0.0760 Ry
        Total length         46.3494 bohr
 

     total cpu time spent up to now is     1539.0 secs

     total energy              =   -3345.08685307 Ry
     estimated scf accuracy    <       0.00944816 Ry

     total magnetization       =    -1.42 Bohr mag/cell
     absolute magnetization    =     1.51 Bohr mag/cell

     iteration # 50     ecut=    36.75 Ry     beta= 0.05
     Davidson diagonalization with overlap
     c_bands:  1 eigenvalues not converged
     ethr =  2.40E-06,  avg # of iterations =  2.5

     negative rho (up, down):  1.040E-02 9.740E-03
 
     Adding external electric field

     Computed dipole along edir(3) : 
        Dipole                0.4273 Ry au,          1.0862 Debye
        Dipole field          0.0008 Ry au, 
 
        Potential amp.       -0.0748 Ry
        Total length         46.3494 bohr
 
 
     Adding external electric field

     Computed dipole along edir(3) : 
        Dipole                0.4273 Ry au,          1.0862 Debye
        Dipole field          0.0008 Ry au, 
 
        Potential amp.       -0.0748 Ry
        Total length         46.3494 bohr
 

     total cpu time spent up to now is     1557.8 secs

     total energy              =   -3345.08664749 Ry
     estimated scf accuracy    <       0.01499463 Ry

     total magnetization       =    -1.43 Bohr mag/cell
     absolute magnetization    =     1.51 Bohr mag/cell

     iteration # 51     ecut=    36.75 Ry     beta= 0.05
     Davidson diagonalization with overlap
     ethr =  2.40E-06,  avg # of iterations =  1.1

     negative rho (up, down):  1.037E-02 9.739E-03
 
     Adding external electric field

     Computed dipole along edir(3) : 
        Dipole                0.4446 Ry au,          1.1301 Debye
        Dipole field          0.0008 Ry au, 
 
        Potential amp.       -0.0778 Ry
        Total length         46.3494 bohr
 
 
     Adding external electric field

     Computed dipole along edir(3) : 
        Dipole                0.4446 Ry au,          1.1301 Debye
        Dipole field          0.0008 Ry au, 
 
        Potential amp.       -0.0778 Ry
        Total length         46.3494 bohr
 

     total cpu time spent up to now is     1575.4 secs

     total energy              =   -3345.08661742 Ry
     estimated scf accuracy    <       0.01387381 Ry

     total magnetization       =    -1.43 Bohr mag/cell
     absolute magnetization    =     1.51 Bohr mag/cell

     iteration # 52     ecut=    36.75 Ry     beta= 0.05
     Davidson diagonalization with overlap
     ethr =  2.40E-06,  avg # of iterations =  1.1

     negative rho (up, down):  1.040E-02 9.722E-03
 
     Adding external electric field

     Computed dipole along edir(3) : 
        Dipole                0.4200 Ry au,          1.0676 Debye
        Dipole field          0.0008 Ry au, 
 
        Potential amp.       -0.0735 Ry
        Total length         46.3494 bohr
 
 
     Adding external electric field

     Computed dipole along edir(3) : 
        Dipole                0.4200 Ry au,          1.0676 Debye
        Dipole field          0.0008 Ry au, 
 
        Potential amp.       -0.0735 Ry
        Total length         46.3494 bohr
 

     total cpu time spent up to now is     1601.9 secs

     total energy              =   -3345.08665702 Ry
     estimated scf accuracy    <       0.01350661 Ry

     total magnetization       =    -1.42 Bohr mag/cell
     absolute magnetization    =     1.51 Bohr mag/cell

     iteration # 53     ecut=    36.75 Ry     beta= 0.05
     Davidson diagonalization with overlap
     ethr =  2.40E-06,  avg # of iterations =  1.0

     negative rho (up, down):  1.035E-02 9.742E-03
 
     Adding external electric field

     Computed dipole along edir(3) : 
        Dipole                0.4428 Ry au,          1.1254 Debye
        Dipole field          0.0008 Ry au, 
 
        Potential amp.       -0.0775 Ry
        Total length         46.3494 bohr
 
 
     Adding external electric field

     Computed dipole along edir(3) : 
        Dipole                0.4428 Ry au,          1.1254 Debye
        Dipole field          0.0008 Ry au, 
 
        Potential amp.       -0.0775 Ry
        Total length         46.3494 bohr
 

     total cpu time spent up to now is     1627.5 secs

     total energy              =   -3345.08674976 Ry
     estimated scf accuracy    <       0.01296984 Ry

     total magnetization       =    -1.43 Bohr mag/cell
     absolute magnetization    =     1.52 Bohr mag/cell

     iteration # 54     ecut=    36.75 Ry     beta= 0.05
     Davidson diagonalization with overlap
     ethr =  2.40E-06,  avg # of iterations =  1.0

     negative rho (up, down):  1.032E-02 9.780E-03
 
     Adding external electric field

     Computed dipole along edir(3) : 
        Dipole                0.4166 Ry au,          1.0589 Debye
        Dipole field          0.0008 Ry au, 
 
        Potential amp.       -0.0729 Ry
        Total length         46.3494 bohr
 
 
     Adding external electric field

     Computed dipole along edir(3) : 
        Dipole                0.4166 Ry au,          1.0589 Debye
        Dipole field          0.0008 Ry au, 
 
        Potential amp.       -0.0729 Ry
        Total length         46.3494 bohr
 

     total cpu time spent up to now is     1653.6 secs

     total energy              =   -3345.08409835 Ry
     estimated scf accuracy    <       0.01610708 Ry

     total magnetization       =    -1.38 Bohr mag/cell
     absolute magnetization    =     1.48 Bohr mag/cell

     iteration # 55     ecut=    36.75 Ry     beta= 0.05
     Davidson diagonalization with overlap
     ethr =  2.40E-06,  avg # of iterations =  5.2

     negative rho (up, down):  1.033E-02 9.764E-03
 
     Adding external electric field

     Computed dipole along edir(3) : 
        Dipole                0.4439 Ry au,          1.1282 Debye
        Dipole field          0.0008 Ry au, 
 
        Potential amp.       -0.0776 Ry
        Total length         46.3494 bohr
 
 
     Adding external electric field

     Computed dipole along edir(3) : 
        Dipole                0.4439 Ry au,          1.1282 Debye
        Dipole field          0.0008 Ry au, 
 
        Potential amp.       -0.0776 Ry
        Total length         46.3494 bohr
 

     total cpu time spent up to now is     1685.6 secs

     total energy              =   -3345.08504705 Ry
     estimated scf accuracy    <       0.00559614 Ry

     total magnetization       =    -1.39 Bohr mag/cell
     absolute magnetization    =     1.50 Bohr mag/cell

     iteration # 56     ecut=    36.75 Ry     beta= 0.05
     Davidson diagonalization with overlap
     ethr =  1.42E-06,  avg # of iterations =  1.6

     negative rho (up, down):  1.033E-02 9.757E-03
 
     Adding external electric field

     Computed dipole along edir(3) : 
        Dipole                0.4667 Ry au,          1.1863 Debye
        Dipole field          0.0009 Ry au, 
 
        Potential amp.       -0.0816 Ry
        Total length         46.3494 bohr
 
 
     Adding external electric field

     Computed dipole along edir(3) : 
        Dipole                0.4667 Ry au,          1.1863 Debye
        Dipole field          0.0009 Ry au, 
 
        Potential amp.       -0.0816 Ry
        Total length         46.3494 bohr
 

     total cpu time spent up to now is     1704.0 secs

     total energy              =   -3345.08517069 Ry
     estimated scf accuracy    <       0.00368136 Ry

     total magnetization       =    -1.40 Bohr mag/cell
     absolute magnetization    =     1.51 Bohr mag/cell

     iteration # 57     ecut=    36.75 Ry     beta= 0.05
     Davidson diagonalization with overlap
     ethr =  9.34E-07,  avg # of iterations =  4.2

     negative rho (up, down):  1.033E-02 9.744E-03
 
     Adding external electric field

     Computed dipole along edir(3) : 
        Dipole                0.4651 Ry au,          1.1821 Debye
        Dipole field          0.0009 Ry au, 
 
        Potential amp.       -0.0814 Ry
        Total length         46.3494 bohr
 
 
     Adding external electric field

     Computed dipole along edir(3) : 
        Dipole                0.4651 Ry au,          1.1821 Debye
        Dipole field          0.0009 Ry au, 
 
        Potential amp.       -0.0814 Ry
        Total length         46.3494 bohr
 

     total cpu time spent up to now is     1732.4 secs

     total energy              =   -3345.08538263 Ry
     estimated scf accuracy    <       0.00292519 Ry

     total magnetization       =    -1.40 Bohr mag/cell
     absolute magnetization    =     1.52 Bohr mag/cell

     iteration # 58     ecut=    36.75 Ry     beta= 0.05
     Davidson diagonalization with overlap
     ethr =  7.42E-07,  avg # of iterations =  5.0

     negative rho (up, down):  1.042E-02 9.677E-03
 
     Adding external electric field

     Computed dipole along edir(3) : 
        Dipole                0.4668 Ry au,          1.1866 Debye
        Dipole field          0.0009 Ry au, 
 
        Potential amp.       -0.0817 Ry
        Total length         46.3494 bohr
 
 
     Adding external electric field

     Computed dipole along edir(3) : 
        Dipole                0.4668 Ry au,          1.1866 Debye
        Dipole field          0.0009 Ry au, 
 
        Potential amp.       -0.0817 Ry
        Total length         46.3494 bohr
 

     total cpu time spent up to now is     1776.1 secs

     total energy              =   -3345.08642420 Ry
     estimated scf accuracy    <       0.00250962 Ry

     total magnetization       =    -1.40 Bohr mag/cell
     absolute magnetization    =     1.53 Bohr mag/cell

     iteration # 59     ecut=    36.75 Ry     beta= 0.05
     Davidson diagonalization with overlap
     ethr =  6.37E-07,  avg # of iterations =  4.2

     negative rho (up, down):  1.060E-02 9.731E-03
 
     Adding external electric field

     Computed dipole along edir(3) : 
        Dipole                0.4825 Ry au,          1.2264 Debye
        Dipole field          0.0009 Ry au, 
 
        Potential amp.       -0.0844 Ry
        Total length         46.3494 bohr
 
 
     Adding external electric field

     Computed dipole along edir(3) : 
        Dipole                0.4825 Ry au,          1.2264 Debye
        Dipole field          0.0009 Ry au, 
 
        Potential amp.       -0.0844 Ry
        Total length         46.3494 bohr
 

     total cpu time spent up to now is     1797.1 secs

     total energy              =   -3345.08705440 Ry
     estimated scf accuracy    <       0.00162572 Ry

     total magnetization       =    -1.46 Bohr mag/cell
     absolute magnetization    =     1.60 Bohr mag/cell

     iteration # 60     ecut=    36.75 Ry     beta= 0.05
     Davidson diagonalization with overlap
     c_bands:  1 eigenvalues not converged
     c_bands:  1 eigenvalues not converged
     c_bands:  1 eigenvalues not converged
     ethr =  4.13E-07,  avg # of iterations =  8.1

     negative rho (up, down):  1.069E-02 9.790E-03
 
     Adding external electric field

     Computed dipole along edir(3) : 
        Dipole                0.4851 Ry au,          1.2329 Debye
        Dipole field          0.0009 Ry au, 
 
        Potential amp.       -0.0849 Ry
        Total length         46.3494 bohr
 
 
     Adding external electric field

     Computed dipole along edir(3) : 
        Dipole                0.4851 Ry au,          1.2329 Debye
        Dipole field          0.0009 Ry au, 
 
        Potential amp.       -0.0849 Ry
        Total length         46.3494 bohr
 

     total cpu time spent up to now is     1822.1 secs

     total energy              =   -3345.08731818 Ry
     estimated scf accuracy    <       0.00069230 Ry

     total magnetization       =    -1.50 Bohr mag/cell
     absolute magnetization    =     1.65 Bohr mag/cell

     iteration # 61     ecut=    36.75 Ry     beta= 0.05
     Davidson diagonalization with overlap
     c_bands:  1 eigenvalues not converged
     ethr =  1.76E-07,  avg # of iterations =  4.7

     negative rho (up, down):  1.075E-02 9.723E-03
 
     Adding external electric field

     Computed dipole along edir(3) : 
        Dipole                0.4768 Ry au,          1.2118 Debye
        Dipole field          0.0009 Ry au, 
 
        Potential amp.       -0.0834 Ry
        Total length         46.3494 bohr
 
 
     Adding external electric field

     Computed dipole along edir(3) : 
        Dipole                0.4768 Ry au,          1.2118 Debye
        Dipole field          0.0009 Ry au, 
 
        Potential amp.       -0.0834 Ry
        Total length         46.3494 bohr
 

     total cpu time spent up to now is     1847.8 secs

     total energy              =   -3345.08758806 Ry
     estimated scf accuracy    <       0.00050459 Ry

     total magnetization       =    -1.51 Bohr mag/cell
     absolute magnetization    =     1.67 Bohr mag/cell

     iteration # 62     ecut=    36.75 Ry     beta= 0.05
     Davidson diagonalization with overlap
     c_bands:  1 eigenvalues not converged
     c_bands:  1 eigenvalues not converged
     ethr =  1.28E-07,  avg # of iterations =  9.5

     negative rho (up, down):  1.098E-02 9.847E-03
 
     Adding external electric field

     Computed dipole along edir(3) : 
        Dipole                0.4830 Ry au,          1.2278 Debye
        Dipole field          0.0009 Ry au, 
 
        Potential amp.       -0.0845 Ry
        Total length         46.3494 bohr
 
 
     Adding external electric field

     Computed dipole along edir(3) : 
        Dipole                0.4830 Ry au,          1.2278 Debye
        Dipole field          0.0009 Ry au, 
 
        Potential amp.       -0.0845 Ry
        Total length         46.3494 bohr
 

     total cpu time spent up to now is     1878.3 secs

     total energy              =   -3345.08783651 Ry
     estimated scf accuracy    <       0.00105035 Ry

[...]
   -15.9105 -15.8757 -15.8460 -15.8023 -15.7851 -15.6851 -15.6242 -14.1782
   -14.0983  -7.6457  -5.0336  -4.7955  -4.5920  -4.4089  -4.1373  -4.0389
    -4.0012  -3.9982  -3.9048  -3.8709  -3.8538  -3.7120  -3.6186  -3.5963
    -3.5647  -3.5311  -3.5026  -3.4603  -3.4322  -3.4147  -3.3760  -3.3518
    -3.3216  -3.2786  -3.2746  -3.2514  -3.1761  -3.1645  -3.1164  -3.0615
    -3.0254  -3.0196  -2.8997  -2.8868  -2.7842  -2.7675  -2.7164  -2.5853
    -2.5694  -2.4986  -2.4536  -2.3522  -2.3118  -2.2226  -2.1228  -2.0497
    -2.0344  -1.9945  -1.9217  -1.8852  -1.8321  -1.8275  -1.8015  -1.7390
    -1.6641  -1.6017  -1.5645  -1.5372  -1.5279  -1.4523  -1.4242  -1.3915
    -1.3113  -1.2880  -1.2653  -1.2483  -1.2014  -1.1906  -1.1223  -1.1148
    -1.0509  -1.0209  -0.9755  -0.9361  -0.8698  -0.8170  -0.7629  -0.7419
    -0.6853  -0.6544  -0.5609  -0.5277  -0.4142  -0.3816  -0.3126  -0.2735
    -0.2116  -0.1772  -0.0607  -0.0094   0.0394   0.3433   0.6237   0.6830
     0.8943   0.9783   0.9812   1.1398   1.8521   2.6330   2.7190   2.7969
     2.8562   2.8698   2.9173   2.9358   3.0472   3.0531   3.0907

          k = 0.0380-0.0839 0.0000 ( 25070 PWs)   bands (ev):

   -56.6275 -56.6132 -56.5977 -56.5971 -56.5677 -56.5127 -56.4828 -56.4656
   -56.3750 -56.3700 -56.3653 -56.3604 -56.3214 -56.2031 -55.5927 -55.5927
   -32.9264 -32.9248 -32.8722 -32.8672 -32.8471 -32.8426 -32.8326 -32.8310
   -32.8036 -32.7781 -32.7740 -32.7527 -32.7490 -32.7354 -32.7280 -32.7243
   -32.7179 -32.7178 -32.7115 -32.7057 -32.6841 -32.6679 -32.6405 -32.6399
   -32.6308 -32.6259 -32.6189 -32.6163 -32.6049 -32.5682 -32.5666 -32.5460
   -32.5412 -32.5371 -32.5175 -32.5042 -32.4788 -32.4756 -32.4752 -32.4020
   -32.3859 -32.3704 -31.8614 -31.8614 -31.7773 -31.7773 -31.7430 -31.7430
   -22.5302 -16.8699 -16.8615 -16.6422 -16.6370 -16.5646 -16.5173 -16.4884
   -16.4340 -16.4116 -16.4058 -16.3468 -16.2944 -16.2131 -16.1916 -16.1829
   -16.1602 -16.1255 -16.1053 -16.0833 -16.0552 -16.0128 -16.0106 -15.9983
   -15.9713 -15.9121 -15.9037 -15.8370 -15.8159 -15.8052 -15.7474 -14.1616
   -14.1594  -7.6489  -5.0225  -4.7853  -4.5319  -4.0424  -3.9749  -3.7986
    -3.7593  -3.7460  -3.7375  -3.6982  -3.6878  -3.6131  -3.6086  -3.6062
    -3.5819  -3.5786  -3.5622  -3.5214  -3.4475  -3.4213  -3.4090  -3.3953
    -3.3583  -3.3407  -3.3198  -3.3190  -3.2524  -3.2350  -3.1885  -3.1701
    -3.1034  -3.0947  -3.0385  -2.7179  -2.6906  -2.6304  -2.5866  -2.4898
    -2.4741  -2.4533  -2.4090  -2.3703  -2.3480  -2.3263  -2.2907  -2.2755
    -2.1759  -2.1630  -2.0755  -2.0688  -1.9708  -1.8502  -1.8293  -1.7468
    -1.7191  -1.6049  -1.5952  -1.4927  -1.4812  -1.4188  -1.3938  -1.3182
    -1.3025  -1.2919  -1.2803  -1.2450  -1.2109  -1.1889  -1.1496  -1.1373
    -1.1124  -1.0880  -1.0414  -1.0192  -1.0159  -0.9424  -0.8359  -0.7557
    -0.7029  -0.6830  -0.5472  -0.5229  -0.4972  -0.4574  -0.3907  -0.3474
    -0.2851  -0.2267  -0.0817  -0.0641   0.1419   0.1781   0.7603   0.7616
     0.9085   0.9115   0.9726   1.1347   1.8679   2.6633   2.6974   2.8237
     2.8364   2.8778   2.9168   2.9364   3.1346   3.1409   3.1679

          k = 0.0380-0.0419 0.0000 ( 25077 PWs)   bands (ev):

   -56.6343 -56.6102 -56.6064 -56.5846 -56.5694 -56.5154 -56.4811 -56.4629
   -56.3851 -56.3749 -56.3598 -56.3508 -56.3226 -56.2019 -55.6047 -55.5806
   -33.0656 -32.9686 -32.9040 -32.8826 -32.8768 -32.8731 -32.8469 -32.8280
   -32.7970 -32.7823 -32.7655 -32.7592 -32.7554 -32.7533 -32.7482 -32.7454
   -32.7375 -32.7020 -32.7006 -32.6901 -32.6881 -32.6523 -32.6319 -32.6282
   -32.6202 -32.5966 -32.5942 -32.5831 -32.5772 -32.5584 -32.5578 -32.5242
   -32.5116 -32.5054 -32.4968 -32.4823 -32.4799 -32.4712 -32.4692 -32.3860
   -32.3710 -32.3489 -31.9097 -31.8713 -31.8516 -31.7737 -31.7123 -31.6411
   -22.5303 -17.1842 -16.8798 -16.7887 -16.7146 -16.6054 -16.5773 -16.5140
   -16.4506 -16.3702 -16.3191 -16.3080 -16.2719 -16.2578 -16.2396 -16.2028
   -16.1796 -16.1316 -16.1081 -16.0557 -16.0056 -15.9884 -15.9742 -15.9499
   -15.9100 -15.8759 -15.8457 -15.8022 -15.7854 -15.6852 -15.6243 -14.1782
   -14.0983  -7.6457  -5.0334  -4.7959  -4.5927  -4.4089  -4.1373  -4.0386
    -4.0000  -3.9969  -3.9041  -3.8708  -3.8537  -3.7118  -3.6186  -3.5966
    -3.5639  -3.5332  -3.5036  -3.4581  -3.4320  -3.4149  -3.3763  -3.3522
    -3.3219  -3.2798  -3.2738  -3.2533  -3.1760  -3.1633  -3.1167  -3.0595
    -3.0259  -3.0141  -2.8996  -2.8864  -2.7820  -2.7670  -2.7165  -2.5876
    -2.5718  -2.4980  -2.4559  -2.3526  -2.3125  -2.2245  -2.1227  -2.0499
    -2.0342  -1.9942  -1.9187  -1.8845  -1.8337  -1.8291  -1.8048  -1.7390
    -1.6640  -1.6032  -1.5659  -1.5442  -1.5247  -1.4526  -1.4247  -1.3917
    -1.3122  -1.2903  -1.2665  -1.2503  -1.2018  -1.1912  -1.1225  -1.1122
    -1.0498  -1.0191  -0.9745  -0.9339  -0.8694  -0.8199  -0.7651  -0.7421
    -0.6801  -0.6506  -0.5618  -0.5281  -0.4139  -0.3816  -0.3134  -0.2721
    -0.2103  -0.1771  -0.0611  -0.0093   0.0400   0.3437   0.6238   0.6830
     0.8941   0.9780   0.9817   1.1406   1.8539   2.6340   2.7235   2.7976
     2.8546   2.8681   2.9218   2.9346   3.0440   3.0526   3.0913

          k =-0.0760-0.0000 0.0000 ( 25092 PWs)   bands (ev):

   -56.6387 -56.6154 -56.6020 -56.5792 -56.5710 -56.5179 -56.4794 -56.4604
   -56.3895 -56.3802 -56.3547 -56.3460 -56.3238 -56.2007 -55.6097 -55.5756
   -33.1235 -33.0233 -32.9587 -32.9287 -32.8933 -32.8818 -32.8577 -32.8240
   -32.8189 -32.8083 -32.8025 -32.7772 -32.7659 -32.7534 -32.7410 -32.7298
   -32.7021 -32.6924 -32.6877 -32.6861 -32.6769 -32.6451 -32.6263 -32.6155
   -32.5875 -32.5831 -32.5702 -32.5637 -32.5563 -32.5539 -32.5471 -32.5304
   -32.5123 -32.4991 -32.4919 -32.4845 -32.4676 -32.4382 -32.4241 -32.3865
   -32.3630 -32.3130 -31.9633 -31.8788 -31.8461 -31.7862 -31.6995 -31.5837
   -22.5304 -17.2149 -16.9314 -16.7919 -16.7273 -16.6612 -16.6250 -16.5332
   -16.4565 -16.4323 -16.4188 -16.3857 -16.3461 -16.3058 -16.2909 -16.2645
   -16.1945 -16.1367 -16.1045 -15.9988 -15.9841 -15.9796 -15.9179 -15.9000
   -15.8490 -15.8122 -15.8006 -15.7646 -15.6892 -15.6198 -15.5370 -14.1710
   -14.0585  -7.6407  -5.0460  -4.8146  -4.5636  -4.5529  -4.1739  -4.1586
    -4.0593  -3.9473  -3.9358  -3.9279  -3.8772  -3.8241  -3.7993  -3.7523
    -3.7419  -3.6164  -3.4237  -3.4091  -3.3721  -3.3618  -3.3259  -3.1481
    -3.1272  -3.0823  -3.0712  -3.0571  -2.9831  -2.9668  -2.9518  -2.9087
    -2.8713  -2.8301  -2.7799  -2.7743  -2.7550  -2.7448  -2.7354  -2.6280
    -2.5947  -2.5933  -2.3914  -2.3215  -2.3019  -2.2589  -2.2309  -2.2139
    -2.1809  -2.1333  -2.1161  -2.0022  -1.9573  -1.9225  -1.8776  -1.8513
    -1.8033  -1.7817  -1.7548  -1.6887  -1.6278  -1.4946  -1.4037  -1.3472
    -1.3136  -1.2947  -1.2874  -1.2169  -1.1518  -1.1484  -1.1078  -1.0424
    -0.9890  -0.9537  -0.8833  -0.8446  -0.8353  -0.8099  -0.7628  -0.7181
    -0.6824  -0.5857  -0.5475  -0.4979  -0.4455  -0.4216  -0.4011  -0.2077
    -0.1359  -0.1164  -0.0278   0.1127   0.1928   0.3409   0.4510   0.5400
     0.7653   0.9341   0.9962   1.1198   1.9015   2.5348   2.5387   2.6972
     2.7639   2.8033   2.8550   2.9407   2.9707   3.0215   3.0325

          k =-0.0760 0.0419 0.0000 ( 25078 PWs)   bands (ev):

   -56.6343 -56.6102 -56.6064 -56.5846 -56.5694 -56.5154 -56.4811 -56.4629
   -56.3846 -56.3754 -56.3597 -56.3509 -56.3226 -56.2019 -55.6047 -55.5806
   -33.0658 -32.9696 -32.9061 -32.8826 -32.8793 -32.8766 -32.8469 -32.8279
   -32.7970 -32.7826 -32.7667 -32.7610 -32.7532 -32.7510 -32.7482 -32.7322
   -32.7283 -32.7023 -32.6914 -32.6899 -32.6877 -32.6744 -32.6317 -32.6250
   -32.6214 -32.5987 -32.5952 -32.5787 -32.5589 -32.5578 -32.5455 -32.5339
   -32.5228 -32.5092 -32.4957 -32.4827 -32.4800 -32.4787 -32.4723 -32.3872
   -32.3710 -32.3488 -31.9095 -31.8738 -31.8508 -31.7737 -31.7123 -31.6410
   -22.5303 -17.0957 -16.8203 -16.7002 -16.6229 -16.6042 -16.5578 -16.5131
   -16.4468 -16.4063 -16.3680 -16.3583 -16.3184 -16.2911 -16.2858 -16.2423
   -16.1890 -16.1152 -16.1067 -16.0990 -16.0375 -16.0126 -15.9950 -15.9470
   -15.9444 -15.8567 -15.8442 -15.8018 -15.7887 -15.6836 -15.6240 -14.1760
   -14.0986  -7.6448  -5.0328  -4.7986  -4.5392  -4.3924  -4.0129  -3.8895
    -3.8708  -3.7812  -3.7362  -3.6955  -3.6540  -3.6233  -3.5982  -3.5959
    -3.5798  -3.5178  -3.5121  -3.4711  -3.4585  -3.3951  -3.3067  -3.2744
    -3.2431  -3.2306  -3.2061  -3.1737  -3.1451  -3.1226  -3.1037  -3.0249
    -2.9888  -2.9320  -2.8886  -2.8474  -2.7258  -2.7077  -2.6608  -2.6206
    -2.5964  -2.5752  -2.4401  -2.3251  -2.2315  -2.2278  -2.1186  -2.1007
    -2.0891  -2.0552  -2.0309  -1.9789  -1.9013  -1.8950  -1.8630  -1.8355
    -1.7910  -1.7751  -1.7522  -1.6970  -1.6735  -1.6647  -1.6026  -1.5678
    -1.4656  -1.4123  -1.4007  -1.3742  -1.2923  -1.2687  -1.2542  -1.2213
    -1.1229  -1.0919  -1.0549  -0.9816  -0.9223  -0.8973  -0.8047  -0.7119
    -0.6569  -0.6205  -0.5520  -0.4246  -0.4164  -0.3577  -0.2630  -0.1845
    -0.1523  -0.1002  -0.0383  -0.0089   0.0398   0.2064   0.6410   0.6865
     0.8188   0.9629   0.9805   1.1326   1.8660   2.5835   2.6583   2.7449
     2.7923   2.8630   2.8835   2.9037   2.9957   3.0628   3.1374

          k =-0.0760-0.0839 0.0000 ( 25128 PWs)   bands (ev):

   -56.6275 -56.6132 -56.5977 -56.5971 -56.5677 -56.5128 -56.4828 -56.4656
   -56.3747 -56.3697 -56.3656 -56.3607 -56.3214 -56.2031 -55.5927 -55.5927
   -32.9266 -32.9250 -32.8723 -32.8673 -32.8472 -32.8433 -32.8328 -32.8317
   -32.8051 -32.7818 -32.7783 -32.7529 -32.7528 -32.7341 -32.7281 -32.7268
   -32.7166 -32.7130 -32.6962 -32.6931 -32.6724 -32.6682 -32.6583 -32.6362
   -32.6302 -32.6300 -32.6246 -32.6181 -32.6150 -32.5681 -32.5665 -32.5373
   -32.5201 -32.5145 -32.5074 -32.5066 -32.5044 -32.5014 -32.4756 -32.4016
   -32.3877 -32.3704 -31.8621 -31.8621 -31.7773 -31.7772 -31.7430 -31.7430
   -22.5302 -16.8237 -16.7859 -16.6272 -16.5746 -16.5388 -16.4637 -16.4362
   -16.3805 -16.3724 -16.3688 -16.3275 -16.3016 -16.2737 -16.2573 -16.2027
   -16.1761 -16.1570 -16.1431 -16.1224 -16.0978 -16.0949 -16.0513 -16.0039
   -15.9835 -15.9832 -15.9447 -15.8275 -15.8108 -15.8047 -15.7425 -14.1614
   -14.1592  -7.6490  -5.0213  -4.7853  -4.5229  -4.0440  -3.9732  -3.7501
    -3.7086  -3.6994  -3.5620  -3.5162  -3.4838  -3.4550  -3.4052  -3.4032
    -3.4006  -3.3798  -3.3599  -3.3551  -3.3289  -3.3068  -3.2742  -3.2554
    -3.2281  -3.2223  -3.1805  -3.1777  -3.1732  -3.1314  -3.1024  -3.1002
    -3.0993  -3.0789  -2.9177  -2.8556  -2.8167  -2.7577  -2.6964  -2.6670
    -2.6636  -2.6509  -2.6091  -2.5774  -2.4838  -2.4238  -2.3072  -2.3038
    -2.2974  -2.2126  -2.1327  -1.9875  -1.9796  -1.9675  -1.9452  -1.8789
    -1.8420  -1.8250  -1.8032  -1.7087  -1.6687  -1.6461  -1.5741  -1.5185
    -1.5052  -1.4771  -1.4396  -1.4076  -1.3539  -1.3086  -1.2609  -1.2021
    -1.1493  -1.1433  -1.1379  -1.1154  -1.1083  -0.9945  -0.9432  -0.6791
    -0.5921  -0.5541  -0.5417  -0.4354  -0.3552  -0.3392  -0.2618  -0.2541
    -0.1267  -0.1177  -0.0377  -0.0319   0.0303   0.0824   0.7814   0.7833
     0.8895   0.8981   0.9763   1.1408   1.8848   2.6457   2.7222   2.7690
     2.8110   2.9577   2.9994   3.0254   3.0425   3.0505   3.1761

     the Fermi energy is     2.6430 ev

!    total energy              =   -3345.20897048 Ry
     estimated scf accuracy    <       0.00000005 Ry
     smearing contrib. (-TS)   =      -0.00036130 Ry
     internal energy E=F+TS    =   -3345.20860918 Ry

     The total energy is F=E-TS. E is the sum of the following terms:
     one-electron contribution =  -23705.94013881 Ry
     hartree contribution      =   11943.01868455 Ry
     xc contribution           =    -559.98909446 Ry
     ewald contribution        =    9316.35117229 Ry
     electric field correction =       0.00036170 Ry
     one-center paw contrib.   =    -338.64959444 Ry

     total magnetization       =    -1.88 Bohr mag/cell
     absolute magnetization    =     2.34 Bohr mag/cell

     convergence has been achieved in  28 iterations

     negative rho (up, down):  1.109E-02 9.823E-03

     Forces acting on atoms (cartesian axes, Ry/au):

     atom    1 type  1   force =     0.00003512    0.00005494    0.11015272
     atom    2 type  1   force =    -0.00010032   -0.00002640   -0.17913672
     atom    3 type  2   force =     0.00008933    0.00000632   -0.02994103
     atom    4 type  2   force =     0.00001138    0.00005018    0.05022309
     atom    5 type  2   force =    -0.02193962   -0.00168058    0.00628611
     atom    6 type  2   force =     0.02179753   -0.00123897    0.00624134
     atom    7 type  1   force =    -0.00003959    0.00004252   -0.00619670
     atom    8 type  1   force =    -0.00002892    0.01114631   -0.00701612
     atom    9 type  2   force =    -0.00002099   -0.00099165   -0.00536130
     atom   10 type  2   force =     0.00013030   -0.00010826    0.01419198
     atom   11 type  2   force =    -0.00131233    0.00031049   -0.00279651
     atom   12 type  2   force =     0.00077316    0.00012375   -0.00241009
     atom   13 type  1   force =     0.00008933    0.00002719    0.00414512
     atom   14 type  1   force =    -0.00025229   -0.00025215    0.00875628
     atom   15 type  2   force =     0.00063031   -0.00217069   -0.00198044
     atom   16 type  2   force =     0.00027539    0.00017773    0.00387125
     atom   17 type  2   force =     0.00322657    0.00116628    0.00149859
     atom   18 type  2   force =    -0.00533668    0.00033785    0.00155422
     atom   19 type  1   force =     0.00165270   -0.00225480    0.00030915
     atom   20 type  1   force =     0.00013900    0.00159208   -0.00093131
     atom   21 type  2   force =     0.00004886    0.00007418    0.10277144
     atom   22 type  2   force =     0.00021731   -0.00225118   -0.00331513
     atom   23 type  2   force =    -0.06802278    0.00045246   -0.03039685
     atom   24 type  2   force =     0.06791289    0.00091882   -0.03043664
     atom   25 type  1   force =     0.00008977   -0.00002048    0.12024869
     atom   26 type  1   force =    -0.00010576   -0.00007091   -0.17912402
     atom   27 type  2   force =     0.00000421   -0.00004979   -0.02777049
     atom   28 type  2   force =     0.00000405   -0.00001966    0.05063356
     atom   29 type  2   force =    -0.02195896    0.00099093    0.00668784
     atom   30 type  2   force =     0.02183433    0.00152497    0.00663353
     atom   31 type  1   force =    -0.00001809   -0.00010250   -0.00751461
     atom   32 type  1   force =    -0.00002944   -0.01134540   -0.00688078
     atom   33 type  2   force =    -0.00017036    0.00036022   -0.00205028
     atom   34 type  2   force =     0.00022529   -0.00021176   -0.00044443
     atom   35 type  2   force =    -0.00049712   -0.00025885   -0.00173389
     atom   36 type  2   force =    -0.00008465   -0.00021856   -0.00134894
     atom   37 type  1   force =     0.00019564   -0.00044748    0.00089724
     atom   38 type  1   force =    -0.00018887   -0.00010494    0.00940060
     atom   39 type  2   force =    -0.00003537    0.00030569   -0.00244801
     atom   40 type  2   force =     0.00006697   -0.00162474    0.00184936
     atom   41 type  2   force =     0.00080824   -0.00019188   -0.00082203
     atom   42 type  2   force =    -0.00001057    0.00061239   -0.00119744
     atom   43 type  1   force =     0.00142178    0.00256943   -0.00774038
     atom   44 type  1   force =    -0.00192239    0.00579481   -0.00131815
     atom   45 type  2   force =     0.00004912    0.00008637    0.10279092
     atom   46 type  3   force =     0.00050603    0.00137045   -0.00343188
     atom   47 type  2   force =    -0.06802661   -0.00086305   -0.03039711
     atom   48 type  2   force =     0.06792230   -0.00046964   -0.03043753
     atom   49 type  2   force =    -0.00133804   -0.00419588    0.00653581
     atom   50 type  2   force =     0.00128286    0.00107381   -0.01110005

     Total force =     0.379777     Total SCF correction =     0.000602
  @ DRIVER MODE: Message from server: STATUS
  @ DRIVER MODE: Message from server: GETFORCE
  @ DRIVER MODE: Returning v,forces,stress,ensemble 

     Writing output data file ./calc.save/
  @ DRIVER MODE: Message from server: STATUS
  @ DRIVER MODE: Message from server: INIT
  @ DRIVER MODE: Receiving replica           0           0
  @ DRIVER MODE: Receiving encoded integer          25
  @ DRIVER MODE:  SCF:  T  FORCE:  T  STRESS:  F  VC:  F  ENSEMBLE:  F
  @ DRIVER MODE:  SCF:  T  FORCE:  T  STRESS:  F  VC:  F  ENSEMBLE:  F
  @ DRIVER MODE: Message from server: STATUS
  @ DRIVER MODE: Message from server: POSDATA
  @ DRIVER MODE: Reading and sharing positions 
  @ DRIVER MODE: Received positions 
     NEW-OLD atomic charge density approx. for the potential

     Check: negative core charge=   -0.000008

     negative rho (up, down):  1.141E-02 1.007E-02
 
     Adding external electric field

     Computed dipole along edir(3) : 
        Dipole               -0.4769 Ry au,         -1.2120 Debye
        Dipole field         -0.0009 Ry au, 
 
        Potential amp.        0.0834 Ry
        Total length         46.3494 bohr
 
 
     Adding external electric field

     Computed dipole along edir(3) : 
        Dipole               -0.4769 Ry au,         -1.2120 Debye
        Dipole field         -0.0009 Ry au, 
 
        Potential amp.        0.0834 Ry
        Total length         46.3494 bohr
 
     Generating pointlists ...

     total cpu time spent up to now is    35746.7 secs

     Self-consistent Calculation

     iteration #  1     ecut=    36.75 Ry     beta= 0.05
     Davidson diagonalization with overlap
     c_bands:  1 eigenvalues not converged
     c_bands:  2 eigenvalues not converged
     c_bands:  1 eigenvalues not converged
     c_bands:  1 eigenvalues not converged
     ethr =  1.88E-11,  avg # of iterations = 34.6

     negative rho (up, down):  1.147E-02 1.013E-02
 
     Adding external electric field

     Computed dipole along edir(3) : 
        Dipole               -0.4118 Ry au,         -1.0468 Debye
        Dipole field         -0.0008 Ry au, 
 
        Potential amp.        0.0720 Ry
        Total length         46.3494 bohr
 
 
     Adding external electric field

     Computed dipole along edir(3) : 
        Dipole               -0.4118 Ry au,         -1.0468 Debye
        Dipole field         -0.0008 Ry au, 
 
        Potential amp.        0.0720 Ry
        Total length         46.3494 bohr
 

     total cpu time spent up to now is    35934.4 secs

     total energy              =   -3345.20919256 Ry
     estimated scf accuracy    <       0.01131632 Ry

     total magnetization       =    -1.86 Bohr mag/cell
     absolute magnetization    =     2.32 Bohr mag/cell

     iteration #  2     ecut=    36.75 Ry     beta= 0.05
     Davidson diagonalization with overlap
     c_bands:  2 eigenvalues not converged
     ethr =  2.87E-06,  avg # of iterations =  6.7

     negative rho (up, down):  1.146E-02 1.012E-02
 
     Adding external electric field

     Computed dipole along edir(3) : 
        Dipole               -0.4546 Ry au,         -1.1556 Debye
        Dipole field         -0.0009 Ry au, 
 
        Potential amp.        0.0795 Ry
        Total length         46.3494 bohr
 
 
     Adding external electric field

     Computed dipole along edir(3) : 
        Dipole               -0.4546 Ry au,         -1.1556 Debye
        Dipole field         -0.0009 Ry au, 
 
        Potential amp.        0.0795 Ry
        Total length         46.3494 bohr
 

     total cpu time spent up to now is    35958.4 secs

     total energy              =   -3345.20902131 Ry
     estimated scf accuracy    <       0.06096408 Ry

     total magnetization       =    -1.87 Bohr mag/cell
     absolute magnetization    =     2.33 Bohr mag/cell

     iteration #  3     ecut=    36.75 Ry     beta= 0.05
     Davidson diagonalization with overlap
     c_bands:  1 eigenvalues not converged
     ethr =  2.87E-06,  avg # of iterations =  3.0
