
     Program PWSCF v.6.7GPU starts on 11Feb2022 at 19: 3:58 

     This program is part of the open-source Quantum ESPRESSO suite
     for quantum simulation of materials; please cite
         "P. Giannozzi et al., J. Phys.:Condens. Matter 21 395502 (2009);
         "P. Giannozzi et al., J. Phys.:Condens. Matter 29 465901 (2017);
         "P. Giannozzi et al., J. Chem. Phys. 152 154105 (2020);
          URL http://www.quantum-espresso.org", 
     in publications or presentations arising from this work. More details at
     http://www.quantum-espresso.org/quote

     Parallel version (MPI), running on    16 processors

     MPI processes distributed on     1 nodes
     R & G space division:  proc/nbgrp/npool/nimage =      16
     Reading input from /storage/coda1/p-amedford6/0/bchen380/C22/qe_3962624.sched-torque.pace.gatech.edu/pw.inp
Warning: card &CELL ignored
Warning: card   CELL_DYNAMICS='IPI', ignored
Warning: card / ignored

     Current dimensions of program PWSCF are:
     Max number of different atomic species (ntypx) = 10
     Max number of k-points (npk) =  40000
     Max angular momentum in pseudopotentials (lmaxx) =  3
     Message from routine cell_base_init:
     DEPRECATED: use true lattice parameter, not A to a.u. conversion factor
     file O.UPF: wavefunction(s)  2P renormalized
     file C.UPF: wavefunction(s)  2S 2P renormalized

     **************************************************************************
     Initializing libbeef V0.1.2 with the BEEF-vdW functional.
     Citation: Wellendorff et al., PRB 85, 235149 (2012).
     **************************************************************************


     IMPORTANT: XC functional enforced from input :
     Exchange-correlation= BEEF-VDW
                           (   1   4  43  14   2   0   0)
     Any further DFT definition will be discarded
     Please, verify this is what you really want


     Subspace diagonalization in iterative solution of the eigenvalue problem:
     one sub-group per band group will be used
     scalapack distributed-memory algorithm (size of sub-group:  4*  4 procs)

  @ DRIVER MODE: Connecting to 
 qe_1064200_3962624.sched-torque.pace.gatech.edukd2e4bo__scratch
  using UNIX socket
  @ DRIVER MODE: Message from server: STATUS
  @ DRIVER MODE: Message from server: INIT
  @ DRIVER MODE: Receiving replica           0          -1
  @ DRIVER MODE: Receiving encoded integer          25
  @ DRIVER MODE:  SCF:  T  FORCE:  T  STRESS:  F  VC:  F  ENSEMBLE:  F
  @ DRIVER MODE:  SCF:  T  FORCE:  T  STRESS:  F  VC:  F  ENSEMBLE:  F
 
     Parallelization info
     --------------------
     sticks:   dense  smooth     PW     G-vecs:    dense   smooth      PW
     Min         256     102     28                49498    12526    1868
     Max         257     103     29                49510    12535    1881
     Sum        4097    1637    459               792059   200495   30031
 
     Using Slab Decomposition
 


     bravais-lattice index     =            0
     lattice parameter (alat)  =       1.8897  a.u.
     unit-cell volume          =    6658.9804 (a.u.)^3
     number of atoms/cell      =           48
     number of atomic types    =            3
     number of electrons       =       382.00
     number of Kohn-Sham states=          201
     kinetic-energy cutoff     =      36.7493  Ry
     charge density cutoff     =     367.4932  Ry
     scf convergence threshold =      7.3E-08
     mixing beta               =       0.0500
     number of iterations used =            8  plain     mixing
     Exchange-correlation= BEEF-VDW
                           (   1   4  43  14   2   0   0)

     celldm(1)=   1.889726  celldm(2)=   0.000000  celldm(3)=   0.000000
     celldm(4)=   0.000000  celldm(5)=   0.000000  celldm(6)=   0.000000

     crystal axes: (cart. coord. in units of alat)
               a(1) = (   6.579727   0.000000   0.000000 )  
               a(2) = (  -0.000775   5.961596   0.000000 )  
               a(3) = (   0.000000   0.000000  25.155947 )  

     reciprocal axes: (cart. coord. in units 2 pi/alat)
               b(1) = (  0.151982  0.000020  0.000000 )  
               b(2) = (  0.000000  0.167740  0.000000 )  
               b(3) = (  0.000000  0.000000  0.039752 )  


     PseudoPot. # 1 for Ti read from file:
     /storage/coda1/p-amedford6/0/shared/rich_project_chbe-medford/medford-share/data/pseudos_module/espresso/esp_pseudos_old/Ti.UPF
     MD5 check sum: 88a00a6731bd790ddea75d31a80cb452
     Pseudo is Ultrasoft + core correction, Zval = 12.0
     Generated by new atomic code, or converted to UPF format
     Using radial grid of  851 points,  6 beta functions with: 
                l(1) =   0
                l(2) =   0
                l(3) =   1
                l(4) =   1
                l(5) =   2
                l(6) =   2
     Q(r) pseudized with  6 coefficients,  rinner =    1.000   1.000   1.000
                                                       1.000   1.000

     PseudoPot. # 2 for O  read from file:
     /storage/coda1/p-amedford6/0/shared/rich_project_chbe-medford/medford-share/data/pseudos_module/espresso/esp_pseudos_old/O.UPF
     MD5 check sum: 0234752ac141de4415c5fc33072bef88
     Pseudo is Projector augmented-wave + core cor, Zval =  6.0
     Generated using "atomic" code by A. Dal Corso  v.5.0.99 svn rev. 10869
     Shape of augmentation charge: BESSEL
     Using radial grid of 1095 points,  4 beta functions with: 
                l(1) =   0
                l(2) =   0
                l(3) =   1
                l(4) =   1
     Q(r) pseudized with 0 coefficients 


     PseudoPot. # 3 for C  read from file:
     /storage/coda1/p-amedford6/0/shared/rich_project_chbe-medford/medford-share/data/pseudos_module/espresso/esp_pseudos_old/C.UPF
     MD5 check sum: 5d2aebdfa2cae82b50a7e79e9516da0f
     Pseudo is Projector augmented-wave + core cor, Zval =  4.0
     Generated using "atomic" code by A. Dal Corso  v.5.1
     Shape of augmentation charge: PSQ
     Using radial grid of 1073 points,  4 beta functions with: 
                l(1) =   0
                l(2) =   0
                l(3) =   1
                l(4) =   1
     Q(r) pseudized with 0 coefficients 


     atomic species   valence    mass     pseudopotential
        Ti1           12.00    47.86700     Ti( 1.00)
        O1             6.00    15.99900     O ( 1.00)
        C1             4.00    12.01100     C ( 1.00)

     Starting magnetic structure 
     atomic species   magnetization
        Ti1          0.000
        O1           0.000
        C1           0.000

     No symmetry found



   Cartesian axes

     site n.     atom                  positions (alat units)
         1           Ti1 tau(   1) = (   0.0004258   2.9801865   6.0000000  )
         2           Ti1 tau(   2) = (   3.2906075   1.4906267   6.0002472  )
         3           O1  tau(   3) = (   0.0006271   0.0005054   7.9858123  )
         4           O1  tau(   4) = (   3.2906025   0.0005020   7.3038282  )
         5           O1  tau(   5) = (   4.5942328   1.4918067   9.2879030  )
         6           O1  tau(   6) = (   1.9868534   1.4903216   9.2879459  )
         7           Ti1 tau(   7) = (   3.2905683   2.9818392   9.1597947  )
         8           Ti1 tau(   8) = (   0.0009689   1.5052867   9.3302970  )
         9           O1  tau(   9) = (   3.2907689   0.0016648  11.3563317  )
        10           O1  tau(  10) = (   0.0007044   0.0001637  10.5878211  )
        11           O1  tau(  11) = (   1.3004573   1.4911895  12.6196604  )
        12           O1  tau(  12) = (   5.2803146   1.4910465  12.6198809  )
        13           Ti1 tau(  13) = (   0.0003545   2.9813121  12.7572432  )
        14           Ti1 tau(  14) = (   3.2903971   1.4912328  12.5002874  )
        15           O1  tau(  15) = (  -0.0002320   5.9576404  14.5977444  )
        16           O1  tau(  16) = (   3.2901645   0.0058045  13.9855309  )
        17           O1  tau(  17) = (   4.5492778   1.5221801  16.1329724  )
        18           O1  tau(  18) = (   2.0311275   1.5222091  16.1330501  )
        19           Ti1 tau(  19) = (   3.2902041   2.9895352  15.7368220  )
        20           Ti1 tau(  20) = (   0.0001478   1.4235607  15.9669019  )
        21           O1  tau(  21) = (   3.2904802   0.0005063   4.7018136  )
        22           O1  tau(  22) = (   0.0000052   5.9613278  17.1620205  )
        23           O1  tau(  23) = (   1.3043587   1.4918075   6.0039043  )
        24           O1  tau(  24) = (   5.2767064   1.4903225   6.0039473  )
        25           Ti1 tau(  25) = (   0.0000382   5.9609847   6.0000000  )
        26           Ti1 tau(  26) = (   3.2902200   4.4714249   6.0002472  )
        27           O1  tau(  27) = (   0.0002396   2.9813036   7.9858123  )
        28           O1  tau(  28) = (   3.2902150   2.9813002   7.3038282  )
        29           O1  tau(  29) = (   4.5938453   4.4726049   9.2879030  )
        30           O1  tau(  30) = (   1.9864658   4.4711199   9.2879459  )
        31           Ti1 tau(  31) = (   3.2909982   0.0016570   9.1583503  )
        32           Ti1 tau(  32) = (   0.0005865   4.4518293   9.3323505  )
        33           O1  tau(  33) = (   3.2903422   2.9801403  11.3468332  )
        34           O1  tau(  34) = (   0.0003571   2.9798178  10.5649370  )
        35           O1  tau(  35) = (   1.3005412   4.4692167  12.6173387  )
        36           O1  tau(  36) = (   5.2794693   4.4690741  12.6175999  )
        37           Ti1 tau(  37) = (  -0.0000806   5.9612980  12.5816508  )
        38           Ti1 tau(  38) = (   3.2900041   4.4658170  12.4917948  )
        39           O1  tau(  39) = (   0.0004188   2.9814100  14.6485654  )
        40           O1  tau(  40) = (   3.2900918   2.9860882  13.9373905  )
        41           O1  tau(  41) = (   4.5492228   4.4522151  16.1330783  )
        42           O1  tau(  42) = (   2.0303863   4.4519659  16.1333203  )
        43           Ti1 tau(  43) = (   3.2899546   0.0061948  15.7807570  )
        44           Ti1 tau(  44) = (  -0.0001637   4.5606593  15.9768108  )
        45           O1  tau(  45) = (   3.2900926   2.9813045   4.7018136  )
        46           C1  tau(  46) = (   6.5792260   2.9590799  17.8640153  )
        47           O1  tau(  47) = (   1.3039711   4.4726057   6.0039043  )
        48           O1  tau(  48) = (   5.2763189   4.4711207   6.0039473  )

     number of k points=    10  Fermi-Dirac smearing, width (Ry)=  0.0007
                       cart. coord. in units 2pi/alat
        k(    1) = (   0.0000000   0.0000000   0.0000000), wk =   0.0625000
        k(    2) = (   0.0000000   0.0419351   0.0000000), wk =   0.1250000
        k(    3) = (   0.0000000  -0.0838702   0.0000000), wk =   0.0625000
        k(    4) = (   0.0379955   0.0000049   0.0000000), wk =   0.1250000
        k(    5) = (   0.0379955   0.0419400   0.0000000), wk =   0.1250000
        k(    6) = (   0.0379955  -0.0838652   0.0000000), wk =   0.1250000
        k(    7) = (   0.0379955  -0.0419301   0.0000000), wk =   0.1250000
        k(    8) = (  -0.0759910  -0.0000099   0.0000000), wk =   0.0625000
        k(    9) = (  -0.0759910   0.0419252   0.0000000), wk =   0.1250000
        k(   10) = (  -0.0759910  -0.0838800   0.0000000), wk =   0.0625000

     Dense  grid:   792059 G-vectors     FFT dimensions: (  75,  72, 300)

     Smooth grid:   200495 G-vectors     FFT dimensions: (  48,  45, 192)

     Estimated max dynamical RAM per process >     378.01 MB

     Estimated total dynamical RAM >       5.91 GB

     Check: negative core charge=   -0.000008
     Generating pointlists ...
     new r_m :   0.7405 (alat units)  1.3994 (a.u.) for type    1
     new r_m :   0.7405 (alat units)  1.3994 (a.u.) for type    2
     new r_m :   1.0068 (alat units)  1.9025 (a.u.) for type    3

     Initial potential from superposition of free atoms

     starting charge  365.99921, renormalised to  382.00000

     negative rho (up, down):  1.174E-02 1.174E-02


     %%%%%%%%%%%%%%%%%%%%%%%%%%%%%%%%%%%%%%%%%%%%%%%%%%%%%%%%%%%%%%%%%%%%%%%%
     %                                                                      %
     % You are using vdW-DF, which was implemented by the Thonhauser group. %
     % Please cite the following two papers that made this development      %
     % possible and the two reviews that describe the various versions:     %
     %                                                                      %
     %   T. Thonhauser et al., PRL 115, 136402 (2015).                      %
     %   T. Thonhauser et al., PRB 76, 125112 (2007).                       %
     %   K. Berland et al., Rep. Prog. Phys. 78, 066501 (2015).             %
     %   D.C. Langreth et al., J. Phys.: Condens. Matter 21, 084203 (2009). %
     %                                                                      %
     %                                                                      %
     % If you are calculating the stress with vdW-DF, please also cite:     %
     %                                                                      %
     %   R. Sabatini et al., J. Phys.: Condens. Matter 24, 424209 (2012).   %
     %                                                                      %
     %%%%%%%%%%%%%%%%%%%%%%%%%%%%%%%%%%%%%%%%%%%%%%%%%%%%%%%%%%%%%%%%%%%%%%%%


 
     Adding external electric field

     Computed dipole along edir(3) : 
        Dipole               -0.1718 Ry au,         -0.4367 Debye
        Dipole field         -0.0003 Ry au, 
 
        Potential amp.        0.0301 Ry
        Total length         46.3494 bohr
 
 
     Adding external electric field

     Computed dipole along edir(3) : 
        Dipole               -0.1718 Ry au,         -0.4367 Debye
        Dipole field         -0.0003 Ry au, 
 
        Potential amp.        0.0301 Ry
        Total length         46.3494 bohr
 
     Starting wfcs are  288 randomized atomic wfcs
     Checking if some PAW data can be deallocated... 
  @ DRIVER MODE: Message from server: STATUS
  @ DRIVER MODE: Message from server: POSDATA
  @ DRIVER MODE: Reading and sharing cell 
  @ DRIVER MODE: Reading and sharing positions 
  @ DRIVER MODE: Received positions 

     total cpu time spent up to now is       21.8 secs

     Self-consistent Calculation

     iteration #  1     ecut=    36.75 Ry     beta= 0.05
     Davidson diagonalization with overlap
     ethr =  1.00E-02,  avg # of iterations =  2.0

     negative rho (up, down):  1.200E-02 1.200E-02
 
     Adding external electric field

     Computed dipole along edir(3) : 
        Dipole               -0.5597 Ry au,         -1.4226 Debye
        Dipole field         -0.0011 Ry au, 
 
        Potential amp.        0.0979 Ry
        Total length         46.3494 bohr
 
 
     Adding external electric field

     Computed dipole along edir(3) : 
        Dipole               -0.5597 Ry au,         -1.4226 Debye
        Dipole field         -0.0011 Ry au, 
 
        Potential amp.        0.0979 Ry
        Total length         46.3494 bohr
 

     total cpu time spent up to now is       44.4 secs

     total energy              =   -3261.40567344 Ry
     estimated scf accuracy    <      12.46280891 Ry

     total magnetization       =     0.00 Bohr mag/cell
     absolute magnetization    =     0.07 Bohr mag/cell

     iteration #  2     ecut=    36.75 Ry     beta= 0.05
     Davidson diagonalization with overlap
     ethr =  3.26E-03,  avg # of iterations =  1.0

     negative rho (up, down):  1.222E-02 1.222E-02
 
     Adding external electric field

     Computed dipole along edir(3) : 
        Dipole                0.2619 Ry au,          0.6657 Debye
        Dipole field          0.0005 Ry au, 
 
        Potential amp.       -0.0458 Ry
        Total length         46.3494 bohr
 
 
     Adding external electric field

     Computed dipole along edir(3) : 
        Dipole                0.2619 Ry au,          0.6657 Debye
        Dipole field          0.0005 Ry au, 
 
        Potential amp.       -0.0458 Ry
        Total length         46.3494 bohr
 

     total cpu time spent up to now is       61.0 secs

     total energy              =   -3260.81173892 Ry
     estimated scf accuracy    <       9.41264602 Ry

     total magnetization       =     0.00 Bohr mag/cell
     absolute magnetization    =     0.06 Bohr mag/cell

     iteration #  3     ecut=    36.75 Ry     beta= 0.05
     Davidson diagonalization with overlap
     ethr =  2.46E-03,  avg # of iterations =  1.0

     negative rho (up, down):  1.335E-02 1.335E-02
 
     Adding external electric field

     Computed dipole along edir(3) : 
        Dipole                0.8274 Ry au,          2.1030 Debye
        Dipole field          0.0016 Ry au, 
 
        Potential amp.       -0.1447 Ry
        Total length         46.3494 bohr
 
 
     Adding external electric field

     Computed dipole along edir(3) : 
        Dipole                0.8274 Ry au,          2.1030 Debye
        Dipole field          0.0016 Ry au, 
 
        Potential amp.       -0.1447 Ry
        Total length         46.3494 bohr
 

     total cpu time spent up to now is       77.7 secs

     total energy              =   -3258.75872804 Ry
     estimated scf accuracy    <       6.36969063 Ry

     total magnetization       =     0.00 Bohr mag/cell
     absolute magnetization    =     0.06 Bohr mag/cell

     iteration #  4     ecut=    36.75 Ry     beta= 0.05
     Davidson diagonalization with overlap
     ethr =  1.67E-03,  avg # of iterations =  5.5

     negative rho (up, down):  1.335E-02 1.335E-02
 
     Adding external electric field

     Computed dipole along edir(3) : 
        Dipole                0.8271 Ry au,          2.1022 Debye
        Dipole field          0.0016 Ry au, 
 
        Potential amp.       -0.1447 Ry
        Total length         46.3494 bohr
 
 
     Adding external electric field

     Computed dipole along edir(3) : 
        Dipole                0.8271 Ry au,          2.1022 Debye
        Dipole field          0.0016 Ry au, 
 
        Potential amp.       -0.1447 Ry
        Total length         46.3494 bohr
 

     total cpu time spent up to now is      106.3 secs

     total energy              =   -3260.91451334 Ry
     estimated scf accuracy    <     106.91237184 Ry

     total magnetization       =     0.03 Bohr mag/cell
     absolute magnetization    =     0.15 Bohr mag/cell

     iteration #  5     ecut=    36.75 Ry     beta= 0.05
     Davidson diagonalization with overlap
     ethr =  1.67E-03,  avg # of iterations =  1.0

     negative rho (up, down):  1.324E-02 1.323E-02
 
     Adding external electric field

     Computed dipole along edir(3) : 
        Dipole                0.7433 Ry au,          1.8892 Debye
        Dipole field          0.0014 Ry au, 
 
        Potential amp.       -0.1300 Ry
        Total length         46.3494 bohr
 
 
     Adding external electric field

     Computed dipole along edir(3) : 
        Dipole                0.7433 Ry au,          1.8892 Debye
        Dipole field          0.0014 Ry au, 
 
        Potential amp.       -0.1300 Ry
        Total length         46.3494 bohr
 

     total cpu time spent up to now is      123.0 secs

     total energy              =   -3260.63439665 Ry
     estimated scf accuracy    <     107.98249714 Ry

     total magnetization       =     0.03 Bohr mag/cell
     absolute magnetization    =     0.14 Bohr mag/cell

     iteration #  6     ecut=    36.75 Ry     beta= 0.05
     Davidson diagonalization with overlap
     ethr =  1.67E-03,  avg # of iterations =  1.0

     negative rho (up, down):  1.320E-02 1.319E-02
 
     Adding external electric field

     Computed dipole along edir(3) : 
        Dipole                0.6988 Ry au,          1.7763 Debye
        Dipole field          0.0013 Ry au, 
 
        Potential amp.       -0.1223 Ry
        Total length         46.3494 bohr
 
 
     Adding external electric field

     Computed dipole along edir(3) : 
        Dipole                0.6988 Ry au,          1.7763 Debye
        Dipole field          0.0013 Ry au, 
 
        Potential amp.       -0.1223 Ry
        Total length         46.3494 bohr
 

     total cpu time spent up to now is      139.6 secs

     total energy              =   -3260.49363366 Ry
     estimated scf accuracy    <      90.57058920 Ry

     total magnetization       =    -0.00 Bohr mag/cell
     absolute magnetization    =     0.11 Bohr mag/cell

     iteration #  7     ecut=    36.75 Ry     beta= 0.05
     Davidson diagonalization with overlap
     ethr =  1.67E-03,  avg # of iterations =  1.0

     negative rho (up, down):  1.340E-02 1.340E-02
 
     Adding external electric field

     Computed dipole along edir(3) : 
        Dipole                0.7225 Ry au,          1.8365 Debye
        Dipole field          0.0014 Ry au, 
 
        Potential amp.       -0.1264 Ry
        Total length         46.3494 bohr
 
 
     Adding external electric field

     Computed dipole along edir(3) : 
        Dipole                0.7225 Ry au,          1.8365 Debye
        Dipole field          0.0014 Ry au, 
 
        Potential amp.       -0.1264 Ry
        Total length         46.3494 bohr
 

     total cpu time spent up to now is      159.1 secs

     total energy              =   -3260.82269234 Ry
     estimated scf accuracy    <      63.63840645 Ry

     total magnetization       =    -0.04 Bohr mag/cell
     absolute magnetization    =     0.12 Bohr mag/cell

     iteration #  8     ecut=    36.75 Ry     beta= 0.05
     Davidson diagonalization with overlap
     ethr =  1.67E-03,  avg # of iterations =  1.0

     negative rho (up, down):  1.347E-02 1.347E-02
 
     Adding external electric field

     Computed dipole along edir(3) : 
        Dipole                0.8183 Ry au,          2.0800 Debye
        Dipole field          0.0015 Ry au, 
 
        Potential amp.       -0.1432 Ry
        Total length         46.3494 bohr
 
 
     Adding external electric field

     Computed dipole along edir(3) : 
        Dipole                0.8183 Ry au,          2.0800 Debye
        Dipole field          0.0015 Ry au, 
 
        Potential amp.       -0.1432 Ry
        Total length         46.3494 bohr
 

     total cpu time spent up to now is      176.1 secs

     total energy              =   -3261.01083553 Ry
     estimated scf accuracy    <      96.52673412 Ry

     total magnetization       =    -0.01 Bohr mag/cell
     absolute magnetization    =     0.10 Bohr mag/cell

     iteration #  9     ecut=    36.75 Ry     beta= 0.05
     Davidson diagonalization with overlap
     ethr =  1.67E-03,  avg # of iterations =  1.0

     negative rho (up, down):  1.309E-02 1.308E-02
 
     Adding external electric field

     Computed dipole along edir(3) : 
        Dipole                0.5040 Ry au,          1.2810 Debye
        Dipole field          0.0010 Ry au, 
 
        Potential amp.       -0.0882 Ry
        Total length         46.3494 bohr
 
 
     Adding external electric field

     Computed dipole along edir(3) : 
        Dipole                0.5040 Ry au,          1.2810 Debye
        Dipole field          0.0010 Ry au, 
 
        Potential amp.       -0.0882 Ry
        Total length         46.3494 bohr
 

     total cpu time spent up to now is      195.5 secs

     total energy              =   -3260.27069922 Ry
     estimated scf accuracy    <     113.96108616 Ry

     total magnetization       =     0.02 Bohr mag/cell
     absolute magnetization    =     0.11 Bohr mag/cell

     iteration # 10     ecut=    36.75 Ry     beta= 0.05
     Davidson diagonalization with overlap
     ethr =  1.67E-03,  avg # of iterations =  1.1

     negative rho (up, down):  1.270E-02 1.269E-02
 
     Adding external electric field

     Computed dipole along edir(3) : 
        Dipole                0.4280 Ry au,          1.0878 Debye
        Dipole field          0.0008 Ry au, 
 
        Potential amp.       -0.0749 Ry
        Total length         46.3494 bohr
 
 
     Adding external electric field

     Computed dipole along edir(3) : 
        Dipole                0.4280 Ry au,          1.0878 Debye
        Dipole field          0.0008 Ry au, 
 
        Potential amp.       -0.0749 Ry
        Total length         46.3494 bohr
 

     total cpu time spent up to now is      212.6 secs

     total energy              =   -3259.90628350 Ry
     estimated scf accuracy    <      21.78758485 Ry

     total magnetization       =    -0.16 Bohr mag/cell
     absolute magnetization    =     0.26 Bohr mag/cell

     iteration # 11     ecut=    36.75 Ry     beta= 0.05
     Davidson diagonalization with overlap
     ethr =  1.67E-03,  avg # of iterations =  3.1

     negative rho (up, down):  1.268E-02 1.268E-02
 
     Adding external electric field

     Computed dipole along edir(3) : 
        Dipole                0.4526 Ry au,          1.1505 Debye
        Dipole field          0.0009 Ry au, 
 
        Potential amp.       -0.0792 Ry
        Total length         46.3494 bohr
 
 
     Adding external electric field

     Computed dipole along edir(3) : 
        Dipole                0.4526 Ry au,          1.1505 Debye
        Dipole field          0.0009 Ry au, 
 
        Potential amp.       -0.0792 Ry
        Total length         46.3494 bohr
 

     total cpu time spent up to now is      243.5 secs

     total energy              =   -3260.23197509 Ry
     estimated scf accuracy    <       1.83705920 Ry

     total magnetization       =     0.00 Bohr mag/cell
     absolute magnetization    =     0.10 Bohr mag/cell

     iteration # 12     ecut=    36.75 Ry     beta= 0.05
     Davidson diagonalization with overlap
     ethr =  4.81E-04,  avg # of iterations =  2.4

     negative rho (up, down):  1.257E-02 1.259E-02
 
     Adding external electric field

     Computed dipole along edir(3) : 
        Dipole                0.5101 Ry au,          1.2965 Debye
        Dipole field          0.0010 Ry au, 
 
        Potential amp.       -0.0892 Ry
        Total length         46.3494 bohr
 
 
     Adding external electric field

     Computed dipole along edir(3) : 
        Dipole                0.5101 Ry au,          1.2965 Debye
        Dipole field          0.0010 Ry au, 
 
        Potential amp.       -0.0892 Ry
        Total length         46.3494 bohr
 

     total cpu time spent up to now is      269.0 secs

     total energy              =   -3260.35491747 Ry
     estimated scf accuracy    <       1.94701424 Ry

     total magnetization       =    -0.01 Bohr mag/cell
     absolute magnetization    =     0.11 Bohr mag/cell

     iteration # 13     ecut=    36.75 Ry     beta= 0.05
     Davidson diagonalization with overlap
     ethr =  4.81E-04,  avg # of iterations =  2.6

     negative rho (up, down):  1.232E-02 1.234E-02
 
     Adding external electric field

     Computed dipole along edir(3) : 
        Dipole                0.4266 Ry au,          1.0844 Debye
        Dipole field          0.0008 Ry au, 
 
        Potential amp.       -0.0746 Ry
        Total length         46.3494 bohr
 
 
     Adding external electric field

     Computed dipole along edir(3) : 
        Dipole                0.4266 Ry au,          1.0844 Debye
        Dipole field          0.0008 Ry au, 
 
        Potential amp.       -0.0746 Ry
        Total length         46.3494 bohr
 

     total cpu time spent up to now is      287.6 secs

     total energy              =   -3260.13205852 Ry
     estimated scf accuracy    <      22.14124575 Ry

     total magnetization       =     0.05 Bohr mag/cell
     absolute magnetization    =     0.25 Bohr mag/cell

     iteration # 14     ecut=    36.75 Ry     beta= 0.05
     Davidson diagonalization with overlap
     ethr =  4.81E-04,  avg # of iterations =  3.4

     negative rho (up, down):  1.203E-02 1.204E-02
 
     Adding external electric field

     Computed dipole along edir(3) : 
        Dipole                0.3757 Ry au,          0.9550 Debye
        Dipole field          0.0007 Ry au, 
 
        Potential amp.       -0.0657 Ry
        Total length         46.3494 bohr
 
 
     Adding external electric field

     Computed dipole along edir(3) : 
        Dipole                0.3757 Ry au,          0.9550 Debye
        Dipole field          0.0007 Ry au, 
 
        Potential amp.       -0.0657 Ry
        Total length         46.3494 bohr
 

     total cpu time spent up to now is      306.9 secs

     total energy              =   -3260.20367618 Ry
     estimated scf accuracy    <       1.20115240 Ry

     total magnetization       =    -0.01 Bohr mag/cell
     absolute magnetization    =     0.09 Bohr mag/cell

     iteration # 15     ecut=    36.75 Ry     beta= 0.05
     Davidson diagonalization with overlap
     ethr =  3.14E-04,  avg # of iterations =  4.7

     negative rho (up, down):  1.201E-02 1.203E-02
 
     Adding external electric field

     Computed dipole along edir(3) : 
        Dipole                0.3891 Ry au,          0.9889 Debye
        Dipole field          0.0007 Ry au, 
 
        Potential amp.       -0.0681 Ry
        Total length         46.3494 bohr
 
 
     Adding external electric field

     Computed dipole along edir(3) : 
        Dipole                0.3891 Ry au,          0.9889 Debye
        Dipole field          0.0007 Ry au, 
 
        Potential amp.       -0.0681 Ry
        Total length         46.3494 bohr
 

     total cpu time spent up to now is      327.6 secs

     total energy              =   -3260.25003347 Ry
     estimated scf accuracy    <       0.74832670 Ry

     total magnetization       =    -0.01 Bohr mag/cell
     absolute magnetization    =     0.10 Bohr mag/cell

     iteration # 16     ecut=    36.75 Ry     beta= 0.05
     Davidson diagonalization with overlap
     ethr =  1.96E-04,  avg # of iterations =  2.1

     negative rho (up, down):  1.189E-02 1.189E-02
 
     Adding external electric field

     Computed dipole along edir(3) : 
        Dipole                0.4260 Ry au,          1.0829 Debye
        Dipole field          0.0008 Ry au, 
 
        Potential amp.       -0.0745 Ry
        Total length         46.3494 bohr
 
 
     Adding external electric field

     Computed dipole along edir(3) : 
        Dipole                0.4260 Ry au,          1.0829 Debye
        Dipole field          0.0008 Ry au, 
 
        Potential amp.       -0.0745 Ry
        Total length         46.3494 bohr
 

     total cpu time spent up to now is      345.6 secs

     total energy              =   -3260.24795261 Ry
     estimated scf accuracy    <       0.59497466 Ry

     total magnetization       =    -0.09 Bohr mag/cell
     absolute magnetization    =     0.15 Bohr mag/cell

     iteration # 17     ecut=    36.75 Ry     beta= 0.05
     Davidson diagonalization with overlap
     ethr =  1.56E-04,  avg # of iterations =  4.0

     negative rho (up, down):  1.165E-02 1.164E-02
 
     Adding external electric field

     Computed dipole along edir(3) : 
        Dipole                0.4517 Ry au,          1.1482 Debye
        Dipole field          0.0009 Ry au, 
 
        Potential amp.       -0.0790 Ry
        Total length         46.3494 bohr
 
 
     Adding external electric field

     Computed dipole along edir(3) : 
        Dipole                0.4517 Ry au,          1.1482 Debye
        Dipole field          0.0009 Ry au, 
 
        Potential amp.       -0.0790 Ry
        Total length         46.3494 bohr
 

     total cpu time spent up to now is      365.7 secs

     total energy              =   -3260.26398792 Ry
     estimated scf accuracy    <       0.62598105 Ry

     total magnetization       =    -0.10 Bohr mag/cell
     absolute magnetization    =     0.15 Bohr mag/cell

     iteration # 18     ecut=    36.75 Ry     beta= 0.05
     Davidson diagonalization with overlap
     ethr =  1.56E-04,  avg # of iterations =  4.3

     negative rho (up, down):  1.146E-02 1.147E-02
 
     Adding external electric field

     Computed dipole along edir(3) : 
        Dipole                0.3797 Ry au,          0.9651 Debye
        Dipole field          0.0007 Ry au, 
 
        Potential amp.       -0.0664 Ry
        Total length         46.3494 bohr
 
 
     Adding external electric field

     Computed dipole along edir(3) : 
        Dipole                0.3797 Ry au,          0.9651 Debye
        Dipole field          0.0007 Ry au, 
 
        Potential amp.       -0.0664 Ry
        Total length         46.3494 bohr
 

     total cpu time spent up to now is      386.1 secs

     total energy              =   -3260.24324826 Ry
     estimated scf accuracy    <       0.80435546 Ry

     total magnetization       =    -0.19 Bohr mag/cell
     absolute magnetization    =     0.25 Bohr mag/cell

     iteration # 19     ecut=    36.75 Ry     beta= 0.05
     Davidson diagonalization with overlap
     ethr =  1.56E-04,  avg # of iterations =  4.5

     negative rho (up, down):  1.137E-02 1.138E-02
 
     Adding external electric field

     Computed dipole along edir(3) : 
        Dipole                0.3599 Ry au,          0.9148 Debye
        Dipole field          0.0007 Ry au, 
 
        Potential amp.       -0.0630 Ry
        Total length         46.3494 bohr
 
 
     Adding external electric field

     Computed dipole along edir(3) : 
        Dipole                0.3599 Ry au,          0.9148 Debye
        Dipole field          0.0007 Ry au, 
 
        Potential amp.       -0.0630 Ry
        Total length         46.3494 bohr
 

     total cpu time spent up to now is      406.6 secs

     total energy              =   -3260.25645891 Ry
     estimated scf accuracy    <       0.51863890 Ry

     total magnetization       =    -0.17 Bohr mag/cell
     absolute magnetization    =     0.24 Bohr mag/cell

     iteration # 20     ecut=    36.75 Ry     beta= 0.05
     Davidson diagonalization with overlap
     ethr =  1.36E-04,  avg # of iterations =  1.9

     negative rho (up, down):  1.123E-02 1.122E-02
 
     Adding external electric field

     Computed dipole along edir(3) : 
        Dipole                0.3402 Ry au,          0.8646 Debye
        Dipole field          0.0006 Ry au, 
 
        Potential amp.       -0.0595 Ry
        Total length         46.3494 bohr
 
 
     Adding external electric field

     Computed dipole along edir(3) : 
        Dipole                0.3402 Ry au,          0.8646 Debye
        Dipole field          0.0006 Ry au, 
 
        Potential amp.       -0.0595 Ry
        Total length         46.3494 bohr
 

     total cpu time spent up to now is      425.1 secs

     total energy              =   -3260.25408741 Ry
     estimated scf accuracy    <       0.48475375 Ry

     total magnetization       =    -0.23 Bohr mag/cell
     absolute magnetization    =     0.30 Bohr mag/cell

     iteration # 21     ecut=    36.75 Ry     beta= 0.05
     Davidson diagonalization with overlap
     c_bands:  1 eigenvalues not converged
     ethr =  1.27E-04,  avg # of iterations =  2.2

     negative rho (up, down):  1.117E-02 1.116E-02
 
     Adding external electric field

     Computed dipole along edir(3) : 
        Dipole                0.3446 Ry au,          0.8758 Debye
        Dipole field          0.0007 Ry au, 
 
        Potential amp.       -0.0603 Ry
        Total length         46.3494 bohr
 
 
     Adding external electric field

     Computed dipole along edir(3) : 
        Dipole                0.3446 Ry au,          0.8758 Debye
        Dipole field          0.0007 Ry au, 
 
        Potential amp.       -0.0603 Ry
        Total length         46.3494 bohr
 

     total cpu time spent up to now is      443.2 secs

     total energy              =   -3260.26024374 Ry
     estimated scf accuracy    <       0.36971576 Ry

     total magnetization       =    -0.33 Bohr mag/cell
     absolute magnetization    =     0.43 Bohr mag/cell

     iteration # 22     ecut=    36.75 Ry     beta= 0.05
     Davidson diagonalization with overlap
     ethr =  9.68E-05,  avg # of iterations =  1.1

     negative rho (up, down):  1.119E-02 1.114E-02
 
     Adding external electric field

     Computed dipole along edir(3) : 
        Dipole                0.3773 Ry au,          0.9591 Debye
        Dipole field          0.0007 Ry au, 
 
        Potential amp.       -0.0660 Ry
        Total length         46.3494 bohr
 
 
     Adding external electric field

     Computed dipole along edir(3) : 
        Dipole                0.3773 Ry au,          0.9591 Debye
        Dipole field          0.0007 Ry au, 
 
        Potential amp.       -0.0660 Ry
        Total length         46.3494 bohr
 

     total cpu time spent up to now is      460.2 secs

     total energy              =   -3260.25604519 Ry
     estimated scf accuracy    <       0.36902592 Ry

     total magnetization       =    -0.34 Bohr mag/cell
     absolute magnetization    =     0.45 Bohr mag/cell

     iteration # 23     ecut=    36.75 Ry     beta= 0.05
     Davidson diagonalization with overlap
     ethr =  9.66E-05,  avg # of iterations =  5.0

     negative rho (up, down):  1.112E-02 1.106E-02
 
     Adding external electric field

     Computed dipole along edir(3) : 
        Dipole                0.3050 Ry au,          0.7752 Debye
        Dipole field          0.0006 Ry au, 
 
        Potential amp.       -0.0534 Ry
        Total length         46.3494 bohr
 
 
     Adding external electric field

     Computed dipole along edir(3) : 
        Dipole                0.3050 Ry au,          0.7752 Debye
        Dipole field          0.0006 Ry au, 
 
        Potential amp.       -0.0534 Ry
        Total length         46.3494 bohr
 

     total cpu time spent up to now is      481.4 secs

     total energy              =   -3260.25360113 Ry
     estimated scf accuracy    <       0.71285032 Ry

     total magnetization       =    -0.61 Bohr mag/cell
     absolute magnetization    =     0.73 Bohr mag/cell

     iteration # 24     ecut=    36.75 Ry     beta= 0.05
     Davidson diagonalization with overlap
     ethr =  9.66E-05,  avg # of iterations =  4.4

     negative rho (up, down):  1.086E-02 1.082E-02
 
     Adding external electric field

     Computed dipole along edir(3) : 
        Dipole                0.0035 Ry au,          0.0089 Debye
        Dipole field          0.0000 Ry au, 
 
        Potential amp.       -0.0006 Ry
        Total length         46.3494 bohr
 
 
     Adding external electric field

     Computed dipole along edir(3) : 
        Dipole                0.0035 Ry au,          0.0089 Debye
        Dipole field          0.0000 Ry au, 
 
        Potential amp.       -0.0006 Ry
        Total length         46.3494 bohr
 

     total cpu time spent up to now is      501.8 secs

     total energy              =   -3260.21104045 Ry
     estimated scf accuracy    <       0.52862844 Ry

     total magnetization       =    -0.86 Bohr mag/cell
     absolute magnetization    =     0.92 Bohr mag/cell

     iteration # 25     ecut=    36.75 Ry     beta= 0.05
     Davidson diagonalization with overlap
     ethr =  9.66E-05,  avg # of iterations =  5.9

     negative rho (up, down):  1.084E-02 1.076E-02
 
     Adding external electric field

     Computed dipole along edir(3) : 
        Dipole               -0.3197 Ry au,         -0.8125 Debye
        Dipole field         -0.0006 Ry au, 
 
        Potential amp.        0.0559 Ry
        Total length         46.3494 bohr
 
 
     Adding external electric field

     Computed dipole along edir(3) : 
        Dipole               -0.3197 Ry au,         -0.8125 Debye
        Dipole field         -0.0006 Ry au, 
 
        Potential amp.        0.0559 Ry
        Total length         46.3494 bohr
 

     total cpu time spent up to now is      524.7 secs

     total energy              =   -3260.28741500 Ry
     estimated scf accuracy    <       0.46446906 Ry

     total magnetization       =    -1.04 Bohr mag/cell
     absolute magnetization    =     1.11 Bohr mag/cell

     iteration # 26     ecut=    36.75 Ry     beta= 0.05
     Davidson diagonalization with overlap
     c_bands:  3 eigenvalues not converged
     c_bands:  1 eigenvalues not converged
     c_bands:  2 eigenvalues not converged
     c_bands:  1 eigenvalues not converged
     ethr =  9.66E-05,  avg # of iterations = 11.8

     negative rho (up, down):  1.100E-02 1.094E-02
 
     Adding external electric field

     Computed dipole along edir(3) : 
        Dipole               -0.1609 Ry au,         -0.4089 Debye
        Dipole field         -0.0003 Ry au, 
 
        Potential amp.        0.0281 Ry
        Total length         46.3494 bohr
 
 
     Adding external electric field

     Computed dipole along edir(3) : 
        Dipole               -0.1609 Ry au,         -0.4089 Debye
        Dipole field         -0.0003 Ry au, 
 
        Potential amp.        0.0281 Ry
        Total length         46.3494 bohr
 

     total cpu time spent up to now is      550.3 secs

     total energy              =   -3260.22461530 Ry
     estimated scf accuracy    <       0.61511571 Ry

     total magnetization       =    -0.98 Bohr mag/cell
     absolute magnetization    =     1.07 Bohr mag/cell

     iteration # 27     ecut=    36.75 Ry     beta= 0.05
     Davidson diagonalization with overlap
     ethr =  9.66E-05,  avg # of iterations =  8.8

     negative rho (up, down):  1.100E-02 1.095E-02
 
     Adding external electric field

     Computed dipole along edir(3) : 
        Dipole               -0.0031 Ry au,         -0.0079 Debye
        Dipole field         -0.0000 Ry au, 
 
        Potential amp.        0.0005 Ry
        Total length         46.3494 bohr
 
 
     Adding external electric field

     Computed dipole along edir(3) : 
        Dipole               -0.0031 Ry au,         -0.0079 Debye
        Dipole field         -0.0000 Ry au, 
 
        Potential amp.        0.0005 Ry
        Total length         46.3494 bohr
 

     total cpu time spent up to now is      574.2 secs

     total energy              =   -3260.22833537 Ry
     estimated scf accuracy    <       0.74772583 Ry

     total magnetization       =    -1.02 Bohr mag/cell
     absolute magnetization    =     1.06 Bohr mag/cell

     iteration # 28     ecut=    36.75 Ry     beta= 0.05
     Davidson diagonalization with overlap
     ethr =  9.66E-05,  avg # of iterations =  2.3

     negative rho (up, down):  1.098E-02 1.093E-02
 
     Adding external electric field

     Computed dipole along edir(3) : 
        Dipole                0.0968 Ry au,          0.2460 Debye
        Dipole field          0.0002 Ry au, 
 
        Potential amp.       -0.0169 Ry
        Total length         46.3494 bohr
 
 
     Adding external electric field

     Computed dipole along edir(3) : 
        Dipole                0.0968 Ry au,          0.2460 Debye
        Dipole field          0.0002 Ry au, 
 
        Potential amp.       -0.0169 Ry
        Total length         46.3494 bohr
 

     total cpu time spent up to now is      593.1 secs

     total energy              =   -3260.23479593 Ry
     estimated scf accuracy    <       0.07220362 Ry

     total magnetization       =    -0.94 Bohr mag/cell
     absolute magnetization    =     1.04 Bohr mag/cell

     iteration # 29     ecut=    36.75 Ry     beta= 0.05
     Davidson diagonalization with overlap
     c_bands:  2 eigenvalues not converged
     c_bands:  1 eigenvalues not converged
     ethr =  1.89E-05,  avg # of iterations = 13.4

     negative rho (up, down):  1.096E-02 1.089E-02
 
     Adding external electric field

     Computed dipole along edir(3) : 
        Dipole               -0.0373 Ry au,         -0.0948 Debye
        Dipole field         -0.0001 Ry au, 
 
        Potential amp.        0.0065 Ry
        Total length         46.3494 bohr
 
 
     Adding external electric field

     Computed dipole along edir(3) : 
        Dipole               -0.0373 Ry au,         -0.0948 Debye
        Dipole field         -0.0001 Ry au, 
 
        Potential amp.        0.0065 Ry
        Total length         46.3494 bohr
 

     total cpu time spent up to now is      620.9 secs

     total energy              =   -3260.23616304 Ry
     estimated scf accuracy    <       0.21303926 Ry

     total magnetization       =    -0.85 Bohr mag/cell
     absolute magnetization    =     0.95 Bohr mag/cell

     iteration # 30     ecut=    36.75 Ry     beta= 0.05
     Davidson diagonalization with overlap
     c_bands:  1 eigenvalues not converged
     ethr =  1.89E-05,  avg # of iterations =  6.2

     negative rho (up, down):  1.100E-02 1.089E-02
 
     Adding external electric field

     Computed dipole along edir(3) : 
        Dipole                0.0113 Ry au,          0.0287 Debye
        Dipole field          0.0000 Ry au, 
 
        Potential amp.       -0.0020 Ry
        Total length         46.3494 bohr
 
 
     Adding external electric field

     Computed dipole along edir(3) : 
        Dipole                0.0113 Ry au,          0.0287 Debye
        Dipole field          0.0000 Ry au, 
 
        Potential amp.       -0.0020 Ry
        Total length         46.3494 bohr
 

     total cpu time spent up to now is      642.5 secs

     total energy              =   -3260.23581378 Ry
     estimated scf accuracy    <       0.05261280 Ry

     total magnetization       =    -1.26 Bohr mag/cell
     absolute magnetization    =     1.31 Bohr mag/cell

     iteration # 31     ecut=    36.75 Ry     beta= 0.05
     Davidson diagonalization with overlap
     ethr =  1.38E-05,  avg # of iterations =  6.8

     negative rho (up, down):  1.101E-02 1.088E-02
 
     Adding external electric field

     Computed dipole along edir(3) : 
        Dipole               -0.0016 Ry au,         -0.0040 Debye
        Dipole field         -0.0000 Ry au, 
 
        Potential amp.        0.0003 Ry
        Total length         46.3494 bohr
 
 
     Adding external electric field

     Computed dipole along edir(3) : 
        Dipole               -0.0016 Ry au,         -0.0040 Debye
        Dipole field         -0.0000 Ry au, 
 
        Potential amp.        0.0003 Ry
        Total length         46.3494 bohr
 

     total cpu time spent up to now is      665.5 secs

     total energy              =   -3260.24140165 Ry
     estimated scf accuracy    <       0.17918053 Ry

     total magnetization       =    -1.68 Bohr mag/cell
     absolute magnetization    =     1.71 Bohr mag/cell

     iteration # 32     ecut=    36.75 Ry     beta= 0.05
     Davidson diagonalization with overlap
     ethr =  1.38E-05,  avg # of iterations =  8.0

     negative rho (up, down):  1.095E-02 1.081E-02
 
     Adding external electric field

     Computed dipole along edir(3) : 
        Dipole               -0.0840 Ry au,         -0.2134 Debye
        Dipole field         -0.0002 Ry au, 
 
        Potential amp.        0.0147 Ry
        Total length         46.3494 bohr
 
 
     Adding external electric field

     Computed dipole along edir(3) : 
        Dipole               -0.0840 Ry au,         -0.2134 Debye
        Dipole field         -0.0002 Ry au, 
 
        Potential amp.        0.0147 Ry
        Total length         46.3494 bohr
 

     total cpu time spent up to now is      704.5 secs

     total energy              =   -3260.24094453 Ry
     estimated scf accuracy    <       0.13327889 Ry

     total magnetization       =    -1.63 Bohr mag/cell
     absolute magnetization    =     1.68 Bohr mag/cell

     iteration # 33     ecut=    36.75 Ry     beta= 0.05
     Davidson diagonalization with overlap
     ethr =  1.38E-05,  avg # of iterations =  5.0

     negative rho (up, down):  1.087E-02 1.068E-02
 
     Adding external electric field

     Computed dipole along edir(3) : 
        Dipole               -0.2220 Ry au,         -0.5643 Debye
        Dipole field         -0.0004 Ry au, 
 
        Potential amp.        0.0388 Ry
        Total length         46.3494 bohr
 
 
     Adding external electric field

     Computed dipole along edir(3) : 
        Dipole               -0.2220 Ry au,         -0.5643 Debye
        Dipole field         -0.0004 Ry au, 
 
        Potential amp.        0.0388 Ry
        Total length         46.3494 bohr
 

     total cpu time spent up to now is      725.4 secs

     total energy              =   -3260.24484786 Ry
     estimated scf accuracy    <       0.14947188 Ry

     total magnetization       =    -1.74 Bohr mag/cell
     absolute magnetization    =     1.78 Bohr mag/cell

     iteration # 34     ecut=    36.75 Ry     beta= 0.05
     Davidson diagonalization with overlap
     c_bands:  1 eigenvalues not converged
     c_bands:  2 eigenvalues not converged
     c_bands:  4 eigenvalues not converged
     c_bands:  1 eigenvalues not converged
     c_bands:  1 eigenvalues not converged
     c_bands:  1 eigenvalues not converged
     c_bands:  1 eigenvalues not converged
     ethr =  1.38E-05,  avg # of iterations = 13.9

     negative rho (up, down):  1.090E-02 1.070E-02
 
     Adding external electric field

     Computed dipole along edir(3) : 
        Dipole               -0.1282 Ry au,         -0.3260 Debye
        Dipole field         -0.0002 Ry au, 
 
        Potential amp.        0.0224 Ry
        Total length         46.3494 bohr
 
 
     Adding external electric field

     Computed dipole along edir(3) : 
        Dipole               -0.1282 Ry au,         -0.3260 Debye
        Dipole field         -0.0002 Ry au, 
 
        Potential amp.        0.0224 Ry
        Total length         46.3494 bohr
 

     total cpu time spent up to now is      754.2 secs

     total energy              =   -3260.24392699 Ry
     estimated scf accuracy    <       0.07489074 Ry

     total magnetization       =    -1.36 Bohr mag/cell
     absolute magnetization    =     1.48 Bohr mag/cell

     iteration # 35     ecut=    36.75 Ry     beta= 0.05
     Davidson diagonalization with overlap
     c_bands:  1 eigenvalues not converged
     ethr =  1.38E-05,  avg # of iterations =  6.5

     negative rho (up, down):  1.086E-02 1.068E-02
 
     Adding external electric field

     Computed dipole along edir(3) : 
        Dipole               -0.1375 Ry au,         -0.3495 Debye
        Dipole field         -0.0003 Ry au, 
 
        Potential amp.        0.0241 Ry
        Total length         46.3494 bohr
 
 
     Adding external electric field

     Computed dipole along edir(3) : 
        Dipole               -0.1375 Ry au,         -0.3495 Debye
        Dipole field         -0.0003 Ry au, 
 
        Potential amp.        0.0241 Ry
        Total length         46.3494 bohr
 

     total cpu time spent up to now is      775.8 secs

     total energy              =   -3260.24760681 Ry
     estimated scf accuracy    <       0.10374539 Ry

     total magnetization       =    -1.73 Bohr mag/cell
     absolute magnetization    =     1.80 Bohr mag/cell

     iteration # 36     ecut=    36.75 Ry     beta= 0.05
     Davidson diagonalization with overlap
     ethr =  1.38E-05,  avg # of iterations =  1.0

     negative rho (up, down):  1.085E-02 1.067E-02
 
     Adding external electric field

     Computed dipole along edir(3) : 
        Dipole               -0.1433 Ry au,         -0.3643 Debye
        Dipole field         -0.0003 Ry au, 
 
        Potential amp.        0.0251 Ry
        Total length         46.3494 bohr
 
 
     Adding external electric field

     Computed dipole along edir(3) : 
        Dipole               -0.1433 Ry au,         -0.3643 Debye
        Dipole field         -0.0003 Ry au, 
 
        Potential amp.        0.0251 Ry
        Total length         46.3494 bohr
 

     total cpu time spent up to now is      792.6 secs

     total energy              =   -3260.24807827 Ry
     estimated scf accuracy    <       0.07167188 Ry

     total magnetization       =    -1.69 Bohr mag/cell
     absolute magnetization    =     1.76 Bohr mag/cell

     iteration # 37     ecut=    36.75 Ry     beta= 0.05
     Davidson diagonalization with overlap
     ethr =  1.38E-05,  avg # of iterations =  1.0

     negative rho (up, down):  1.090E-02 1.068E-02
 
     Adding external electric field

     Computed dipole along edir(3) : 
        Dipole               -0.1425 Ry au,         -0.3621 Debye
        Dipole field         -0.0003 Ry au, 
 
        Potential amp.        0.0249 Ry
        Total length         46.3494 bohr
 
 
     Adding external electric field

     Computed dipole along edir(3) : 
        Dipole               -0.1425 Ry au,         -0.3621 Debye
        Dipole field         -0.0003 Ry au, 
 
        Potential amp.        0.0249 Ry
        Total length         46.3494 bohr
 

     total cpu time spent up to now is      809.4 secs

     total energy              =   -3260.25023148 Ry
     estimated scf accuracy    <       0.06104091 Ry

     total magnetization       =    -1.69 Bohr mag/cell
     absolute magnetization    =     1.75 Bohr mag/cell

     iteration # 38     ecut=    36.75 Ry     beta= 0.05
     Davidson diagonalization with overlap
     c_bands:  2 eigenvalues not converged
     c_bands:  2 eigenvalues not converged
     ethr =  1.38E-05,  avg # of iterations =  8.8

     negative rho (up, down):  1.091E-02 1.065E-02
 
     Adding external electric field

     Computed dipole along edir(3) : 
        Dipole               -0.1796 Ry au,         -0.4565 Debye
        Dipole field         -0.0003 Ry au, 
 
        Potential amp.        0.0314 Ry
        Total length         46.3494 bohr
 
 
     Adding external electric field

     Computed dipole along edir(3) : 
        Dipole               -0.1796 Ry au,         -0.4565 Debye
        Dipole field         -0.0003 Ry au, 
 
        Potential amp.        0.0314 Ry
        Total length         46.3494 bohr
 

     total cpu time spent up to now is      833.4 secs

     total energy              =   -3260.25621014 Ry
     estimated scf accuracy    <       0.02123244 Ry

     total magnetization       =    -1.64 Bohr mag/cell
     absolute magnetization    =     1.71 Bohr mag/cell

     iteration # 39     ecut=    36.75 Ry     beta= 0.05
     Davidson diagonalization with overlap
     c_bands:  4 eigenvalues not converged
     c_bands:  2 eigenvalues not converged
     c_bands:  1 eigenvalues not converged
     c_bands:  1 eigenvalues not converged
     c_bands:  1 eigenvalues not converged
     c_bands:  4 eigenvalues not converged
     c_bands:  1 eigenvalues not converged
     c_bands:  2 eigenvalues not converged
     c_bands:  1 eigenvalues not converged
     c_bands:  3 eigenvalues not converged
     ethr =  5.56E-06,  avg # of iterations = 14.6

     negative rho (up, down):  1.089E-02 1.063E-02
 
     Adding external electric field

     Computed dipole along edir(3) : 
        Dipole               -0.1559 Ry au,         -0.3962 Debye
        Dipole field         -0.0003 Ry au, 
 
        Potential amp.        0.0273 Ry
        Total length         46.3494 bohr
 
 
     Adding external electric field

     Computed dipole along edir(3) : 
        Dipole               -0.1559 Ry au,         -0.3962 Debye
        Dipole field         -0.0003 Ry au, 
 
        Potential amp.        0.0273 Ry
        Total length         46.3494 bohr
 

     total cpu time spent up to now is      860.7 secs

     total energy              =   -3260.25640220 Ry
     estimated scf accuracy    <       0.03826578 Ry

     total magnetization       =    -1.51 Bohr mag/cell
     absolute magnetization    =     1.64 Bohr mag/cell

     iteration # 40     ecut=    36.75 Ry     beta= 0.05
     Davidson diagonalization with overlap
     c_bands:  2 eigenvalues not converged
     c_bands:  1 eigenvalues not converged
     c_bands:  1 eigenvalues not converged
     c_bands:  1 eigenvalues not converged
     ethr =  5.56E-06,  avg # of iterations =  6.5

     negative rho (up, down):  1.090E-02 1.064E-02
 
     Adding external electric field

     Computed dipole along edir(3) : 
        Dipole               -0.2005 Ry au,         -0.5097 Debye
        Dipole field         -0.0004 Ry au, 
 
        Potential amp.        0.0351 Ry
        Total length         46.3494 bohr
 
 
     Adding external electric field

     Computed dipole along edir(3) : 
        Dipole               -0.2005 Ry au,         -0.5097 Debye
        Dipole field         -0.0004 Ry au, 
 
        Potential amp.        0.0351 Ry
        Total length         46.3494 bohr
 

     total cpu time spent up to now is      881.0 secs

     total energy              =   -3260.25609149 Ry
     estimated scf accuracy    <       0.02705691 Ry

     total magnetization       =    -1.71 Bohr mag/cell
     absolute magnetization    =     1.80 Bohr mag/cell

     iteration # 41     ecut=    36.75 Ry     beta= 0.05
     Davidson diagonalization with overlap
     ethr =  5.56E-06,  avg # of iterations =  4.2

     negative rho (up, down):  1.087E-02 1.062E-02
 
     Adding external electric field

     Computed dipole along edir(3) : 
        Dipole               -0.1631 Ry au,         -0.4144 Debye
        Dipole field         -0.0003 Ry au, 
 
        Potential amp.        0.0285 Ry
        Total length         46.3494 bohr
 
 
     Adding external electric field

     Computed dipole along edir(3) : 
        Dipole               -0.1631 Ry au,         -0.4144 Debye
        Dipole field         -0.0003 Ry au, 
 
        Potential amp.        0.0285 Ry
        Total length         46.3494 bohr
 

     total cpu time spent up to now is      901.2 secs

     total energy              =   -3260.25538894 Ry
     estimated scf accuracy    <       0.01704699 Ry

     total magnetization       =    -1.62 Bohr mag/cell
     absolute magnetization    =     1.74 Bohr mag/cell

     iteration # 42     ecut=    36.75 Ry     beta= 0.05
     Davidson diagonalization with overlap
     ethr =  4.46E-06,  avg # of iterations =  2.0

     negative rho (up, down):  1.085E-02 1.058E-02
 
     Adding external electric field

     Computed dipole along edir(3) : 
        Dipole               -0.1832 Ry au,         -0.4656 Debye
        Dipole field         -0.0003 Ry au, 
 
        Potential amp.        0.0320 Ry
        Total length         46.3494 bohr
 
 
     Adding external electric field

     Computed dipole along edir(3) : 
        Dipole               -0.1832 Ry au,         -0.4656 Debye
        Dipole field         -0.0003 Ry au, 
 
        Potential amp.        0.0320 Ry
        Total length         46.3494 bohr
 

     total cpu time spent up to now is      919.0 secs

     total energy              =   -3260.25750776 Ry
     estimated scf accuracy    <       0.06034236 Ry

     total magnetization       =    -1.80 Bohr mag/cell
     absolute magnetization    =     1.87 Bohr mag/cell

     iteration # 43     ecut=    36.75 Ry     beta= 0.05
     Davidson diagonalization with overlap
     ethr =  4.46E-06,  avg # of iterations =  1.4

     negative rho (up, down):  1.089E-02 1.064E-02
 
     Adding external electric field

     Computed dipole along edir(3) : 
        Dipole               -0.1708 Ry au,         -0.4341 Debye
        Dipole field         -0.0003 Ry au, 
 
        Potential amp.        0.0299 Ry
        Total length         46.3494 bohr
 
 
     Adding external electric field

     Computed dipole along edir(3) : 
        Dipole               -0.1708 Ry au,         -0.4341 Debye
        Dipole field         -0.0003 Ry au, 
 
        Potential amp.        0.0299 Ry
        Total length         46.3494 bohr
 

     total cpu time spent up to now is      936.2 secs

     total energy              =   -3260.25820264 Ry
     estimated scf accuracy    <       0.02768188 Ry

     total magnetization       =    -1.75 Bohr mag/cell
     absolute magnetization    =     1.84 Bohr mag/cell

     iteration # 44     ecut=    36.75 Ry     beta= 0.05
     Davidson diagonalization with overlap
     ethr =  4.46E-06,  avg # of iterations =  1.6

     negative rho (up, down):  1.082E-02 1.059E-02
 
     Adding external electric field

     Computed dipole along edir(3) : 
        Dipole               -0.1803 Ry au,         -0.4582 Debye
        Dipole field         -0.0003 Ry au, 
 
        Potential amp.        0.0315 Ry
        Total length         46.3494 bohr
 
 
     Adding external electric field

     Computed dipole along edir(3) : 
        Dipole               -0.1803 Ry au,         -0.4582 Debye
        Dipole field         -0.0003 Ry au, 
 
        Potential amp.        0.0315 Ry
        Total length         46.3494 bohr
 

     total cpu time spent up to now is      953.7 secs

     total energy              =   -3260.25200920 Ry
     estimated scf accuracy    <       0.03608659 Ry

     total magnetization       =    -1.74 Bohr mag/cell
     absolute magnetization    =     1.82 Bohr mag/cell

     iteration # 45     ecut=    36.75 Ry     beta= 0.05
     Davidson diagonalization with overlap
     ethr =  4.46E-06,  avg # of iterations =  5.8

     negative rho (up, down):  1.085E-02 1.060E-02
 
     Adding external electric field

     Computed dipole along edir(3) : 
        Dipole               -0.2099 Ry au,         -0.5334 Debye
        Dipole field         -0.0004 Ry au, 
 
        Potential amp.        0.0367 Ry
        Total length         46.3494 bohr
 
 
     Adding external electric field

     Computed dipole along edir(3) : 
        Dipole               -0.2099 Ry au,         -0.5334 Debye
        Dipole field         -0.0004 Ry au, 
 
        Potential amp.        0.0367 Ry
        Total length         46.3494 bohr
 

     total cpu time spent up to now is      975.2 secs

     total energy              =   -3260.25586047 Ry
     estimated scf accuracy    <       0.01466458 Ry

     total magnetization       =    -1.68 Bohr mag/cell
     absolute magnetization    =     1.76 Bohr mag/cell

     iteration # 46     ecut=    36.75 Ry     beta= 0.05
     Davidson diagonalization with overlap
     ethr =  3.84E-06,  avg # of iterations =  1.6

     negative rho (up, down):  1.083E-02 1.059E-02
 
     Adding external electric field

     Computed dipole along edir(3) : 
        Dipole               -0.2086 Ry au,         -0.5303 Debye
        Dipole field         -0.0004 Ry au, 
 
        Potential amp.        0.0365 Ry
        Total length         46.3494 bohr
 
 
     Adding external electric field

     Computed dipole along edir(3) : 
        Dipole               -0.2086 Ry au,         -0.5303 Debye
        Dipole field         -0.0004 Ry au, 
 
        Potential amp.        0.0365 Ry
        Total length         46.3494 bohr
 

     total cpu time spent up to now is      993.1 secs

     total energy              =   -3260.25489051 Ry
     estimated scf accuracy    <       0.01493464 Ry

     total magnetization       =    -1.66 Bohr mag/cell
     absolute magnetization    =     1.77 Bohr mag/cell

     iteration # 47     ecut=    36.75 Ry     beta= 0.05
     Davidson diagonalization with overlap
     ethr =  3.84E-06,  avg # of iterations =  1.6

     negative rho (up, down):  1.076E-02 1.054E-02
 
     Adding external electric field

     Computed dipole along edir(3) : 
        Dipole               -0.1490 Ry au,         -0.3786 Debye
        Dipole field         -0.0003 Ry au, 
 
        Potential amp.        0.0261 Ry
        Total length         46.3494 bohr
 
 
     Adding external electric field

     Computed dipole along edir(3) : 
        Dipole               -0.1490 Ry au,         -0.3786 Debye
        Dipole field         -0.0003 Ry au, 
 
        Potential amp.        0.0261 Ry
        Total length         46.3494 bohr
 

     total cpu time spent up to now is     1010.6 secs

     total energy              =   -3260.25299511 Ry
     estimated scf accuracy    <       0.01430487 Ry

     total magnetization       =    -1.56 Bohr mag/cell
     absolute magnetization    =     1.67 Bohr mag/cell

     iteration # 48     ecut=    36.75 Ry     beta= 0.05
     Davidson diagonalization with overlap
     c_bands:  1 eigenvalues not converged
     ethr =  3.74E-06,  avg # of iterations =  6.8

     negative rho (up, down):  1.077E-02 1.056E-02
 
     Adding external electric field

     Computed dipole along edir(3) : 
        Dipole               -0.1853 Ry au,         -0.4710 Debye
        Dipole field         -0.0003 Ry au, 
 
        Potential amp.        0.0324 Ry
        Total length         46.3494 bohr
 
 
     Adding external electric field

     Computed dipole along edir(3) : 
        Dipole               -0.1853 Ry au,         -0.4710 Debye
        Dipole field         -0.0003 Ry au, 
 
        Potential amp.        0.0324 Ry
        Total length         46.3494 bohr
 

     total cpu time spent up to now is     1032.1 secs

     total energy              =   -3260.25405980 Ry
     estimated scf accuracy    <       0.03218886 Ry

     total magnetization       =    -1.71 Bohr mag/cell
     absolute magnetization    =     1.81 Bohr mag/cell

     iteration # 49     ecut=    36.75 Ry     beta= 0.05
     Davidson diagonalization with overlap
     ethr =  3.74E-06,  avg # of iterations =  5.2

     negative rho (up, down):  1.073E-02 1.051E-02
 
     Adding external electric field

     Computed dipole along edir(3) : 
        Dipole               -0.1923 Ry au,         -0.4889 Debye
        Dipole field         -0.0004 Ry au, 
 
        Potential amp.        0.0336 Ry
        Total length         46.3494 bohr
 
 
     Adding external electric field

     Computed dipole along edir(3) : 
        Dipole               -0.1923 Ry au,         -0.4889 Debye
        Dipole field         -0.0004 Ry au, 
 
        Potential amp.        0.0336 Ry
        Total length         46.3494 bohr
 

     total cpu time spent up to now is     1052.7 secs

     total energy              =   -3260.25528553 Ry
     estimated scf accuracy    <       0.03682272 Ry

     total magnetization       =    -1.76 Bohr mag/cell
     absolute magnetization    =     1.84 Bohr mag/cell

     iteration # 50     ecut=    36.75 Ry     beta= 0.05
     Davidson diagonalization with overlap
     ethr =  3.74E-06,  avg # of iterations =  3.9

     negative rho (up, down):  1.072E-02 1.049E-02
 
     Adding external electric field

     Computed dipole along edir(3) : 
        Dipole               -0.1670 Ry au,         -0.4244 Debye
        Dipole field         -0.0003 Ry au, 
 
        Potential amp.        0.0292 Ry
        Total length         46.3494 bohr
 
 
     Adding external electric field

     Computed dipole along edir(3) : 
        Dipole               -0.1670 Ry au,         -0.4244 Debye
        Dipole field         -0.0003 Ry au, 
 
        Potential amp.        0.0292 Ry
        Total length         46.3494 bohr
 

     total cpu time spent up to now is     1072.3 secs

     total energy              =   -3260.25750397 Ry
     estimated scf accuracy    <       0.00891025 Ry

     total magnetization       =    -1.71 Bohr mag/cell
     absolute magnetization    =     1.81 Bohr mag/cell

     iteration # 51     ecut=    36.75 Ry     beta= 0.05
     Davidson diagonalization with overlap
     c_bands:  1 eigenvalues not converged
     c_bands:  1 eigenvalues not converged
     c_bands:  1 eigenvalues not converged
     c_bands:  1 eigenvalues not converged
     ethr =  2.33E-06,  avg # of iterations =  9.9

     negative rho (up, down):  1.073E-02 1.048E-02
 
     Adding external electric field

     Computed dipole along edir(3) : 
        Dipole               -0.1877 Ry au,         -0.4771 Debye
        Dipole field         -0.0004 Ry au, 
 
        Potential amp.        0.0328 Ry
        Total length         46.3494 bohr
 
 
     Adding external electric field

     Computed dipole along edir(3) : 
        Dipole               -0.1877 Ry au,         -0.4771 Debye
        Dipole field         -0.0004 Ry au, 
 
        Potential amp.        0.0328 Ry
        Total length         46.3494 bohr
 

     total cpu time spent up to now is     1096.1 secs

     total energy              =   -3260.25890954 Ry
     estimated scf accuracy    <       0.01867177 Ry

     total magnetization       =    -1.78 Bohr mag/cell
     absolute magnetization    =     1.92 Bohr mag/cell

     iteration # 52     ecut=    36.75 Ry     beta= 0.05
     Davidson diagonalization with overlap
     c_bands:  1 eigenvalues not converged
     c_bands:  1 eigenvalues not converged
     ethr =  2.33E-06,  avg # of iterations =  6.5

     negative rho (up, down):  1.072E-02 1.048E-02
 
     Adding external electric field

     Computed dipole along edir(3) : 
        Dipole               -0.1874 Ry au,         -0.4763 Debye
        Dipole field         -0.0004 Ry au, 
 
        Potential amp.        0.0328 Ry
        Total length         46.3494 bohr
 
 
     Adding external electric field

     Computed dipole along edir(3) : 
        Dipole               -0.1874 Ry au,         -0.4763 Debye
        Dipole field         -0.0004 Ry au, 
 
        Potential amp.        0.0328 Ry
        Total length         46.3494 bohr
 

     total cpu time spent up to now is     1117.1 secs

     total energy              =   -3260.25768686 Ry
     estimated scf accuracy    <       0.00672998 Ry

     total magnetization       =    -1.82 Bohr mag/cell
     absolute magnetization    =     1.97 Bohr mag/cell

     iteration # 53     ecut=    36.75 Ry     beta= 0.05
     Davidson diagonalization with overlap
     ethr =  1.76E-06,  avg # of iterations =  3.2

     negative rho (up, down):  1.072E-02 1.047E-02
 
     Adding external electric field

     Computed dipole along edir(3) : 
        Dipole               -0.1940 Ry au,         -0.4930 Debye
        Dipole field         -0.0004 Ry au, 
 
        Potential amp.        0.0339 Ry
        Total length         46.3494 bohr
 
 
     Adding external electric field

     Computed dipole along edir(3) : 
        Dipole               -0.1940 Ry au,         -0.4930 Debye
        Dipole field         -0.0004 Ry au, 
 
        Potential amp.        0.0339 Ry
        Total length         46.3494 bohr
 

     total cpu time spent up to now is     1136.7 secs

     total energy              =   -3260.25713384 Ry
     estimated scf accuracy    <       0.00494742 Ry

     total magnetization       =    -1.71 Bohr mag/cell
     absolute magnetization    =     1.86 Bohr mag/cell

     iteration # 54     ecut=    36.75 Ry     beta= 0.05
     Davidson diagonalization with overlap
     ethr =  1.30E-06,  avg # of iterations =  3.1

     negative rho (up, down):  1.072E-02 1.050E-02
 
     Adding external electric field

     Computed dipole along edir(3) : 
        Dipole               -0.1847 Ry au,         -0.4696 Debye
        Dipole field         -0.0003 Ry au, 
 
        Potential amp.        0.0323 Ry
        Total length         46.3494 bohr
 
 
     Adding external electric field

     Computed dipole along edir(3) : 
        Dipole               -0.1847 Ry au,         -0.4696 Debye
        Dipole field         -0.0003 Ry au, 
 
        Potential amp.        0.0323 Ry
        Total length         46.3494 bohr
 

     total cpu time spent up to now is     1155.8 secs

     total energy              =   -3260.25716815 Ry
     estimated scf accuracy    <       0.00606547 Ry

     total magnetization       =    -1.68 Bohr mag/cell
     absolute magnetization    =     1.82 Bohr mag/cell

     iteration # 55     ecut=    36.75 Ry     beta= 0.05
     Davidson diagonalization with overlap
     ethr =  1.30E-06,  avg # of iterations =  2.9

     negative rho (up, down):  1.073E-02 1.051E-02
 
     Adding external electric field

     Computed dipole along edir(3) : 
        Dipole               -0.1837 Ry au,         -0.4669 Debye
        Dipole field         -0.0003 Ry au, 
 
        Potential amp.        0.0321 Ry
        Total length         46.3494 bohr
 
 
     Adding external electric field

     Computed dipole along edir(3) : 
        Dipole               -0.1837 Ry au,         -0.4669 Debye
        Dipole field         -0.0003 Ry au, 
 
        Potential amp.        0.0321 Ry
        Total length         46.3494 bohr
 

     total cpu time spent up to now is     1175.1 secs

     total energy              =   -3260.25661514 Ry
     estimated scf accuracy    <       0.00629121 Ry

     total magnetization       =    -1.67 Bohr mag/cell
     absolute magnetization    =     1.83 Bohr mag/cell

     iteration # 56     ecut=    36.75 Ry     beta= 0.05
     Davidson diagonalization with overlap
     ethr =  1.30E-06,  avg # of iterations =  1.9

     negative rho (up, down):  1.073E-02 1.051E-02
 
     Adding external electric field

     Computed dipole along edir(3) : 
        Dipole               -0.1899 Ry au,         -0.4827 Debye
        Dipole field         -0.0004 Ry au, 
 
        Potential amp.        0.0332 Ry
        Total length         46.3494 bohr
 
 
     Adding external electric field

     Computed dipole along edir(3) : 
        Dipole               -0.1899 Ry au,         -0.4827 Debye
        Dipole field         -0.0004 Ry au, 
 
        Potential amp.        0.0332 Ry
        Total length         46.3494 bohr
 

     total cpu time spent up to now is     1192.8 secs

     total energy              =   -3260.25610404 Ry
     estimated scf accuracy    <       0.00507768 Ry

     total magnetization       =    -1.66 Bohr mag/cell
     absolute magnetization    =     1.81 Bohr mag/cell

     iteration # 57     ecut=    36.75 Ry     beta= 0.05
     Davidson diagonalization with overlap
     ethr =  1.30E-06,  avg # of iterations =  1.9

     negative rho (up, down):  1.075E-02 1.052E-02
 
     Adding external electric field

     Computed dipole along edir(3) : 
        Dipole               -0.1742 Ry au,         -0.4427 Debye
        Dipole field         -0.0003 Ry au, 
 
        Potential amp.        0.0305 Ry
        Total length         46.3494 bohr
 
 
     Adding external electric field

     Computed dipole along edir(3) : 
        Dipole               -0.1742 Ry au,         -0.4427 Debye
        Dipole field         -0.0003 Ry au, 
 
        Potential amp.        0.0305 Ry
        Total length         46.3494 bohr
 

     total cpu time spent up to now is     1211.0 secs

     total energy              =   -3260.25698209 Ry
     estimated scf accuracy    <       0.00497726 Ry

     total magnetization       =    -1.65 Bohr mag/cell
     absolute magnetization    =     1.79 Bohr mag/cell

     iteration # 58     ecut=    36.75 Ry     beta= 0.05
     Davidson diagonalization with overlap
     c_bands:  1 eigenvalues not converged
     ethr =  1.30E-06,  avg # of iterations =  3.0

     negative rho (up, down):  1.073E-02 1.051E-02
 
     Adding external electric field

     Computed dipole along edir(3) : 
        Dipole               -0.1788 Ry au,         -0.4545 Debye
        Dipole field         -0.0003 Ry au, 
 
        Potential amp.        0.0313 Ry
        Total length         46.3494 bohr
 
 
     Adding external electric field

     Computed dipole along edir(3) : 
        Dipole               -0.1788 Ry au,         -0.4545 Debye
        Dipole field         -0.0003 Ry au, 
 
        Potential amp.        0.0313 Ry
        Total length         46.3494 bohr
 

     total cpu time spent up to now is     1230.5 secs

     total energy              =   -3260.25595785 Ry
     estimated scf accuracy    <       0.00554491 Ry

     total magnetization       =    -1.66 Bohr mag/cell
     absolute magnetization    =     1.82 Bohr mag/cell

     iteration # 59     ecut=    36.75 Ry     beta= 0.05
     Davidson diagonalization with overlap
     ethr =  1.30E-06,  avg # of iterations =  2.5

     negative rho (up, down):  1.076E-02 1.055E-02
 
     Adding external electric field

     Computed dipole along edir(3) : 
        Dipole               -0.1839 Ry au,         -0.4675 Debye
        Dipole field         -0.0003 Ry au, 
 
        Potential amp.        0.0322 Ry
        Total length         46.3494 bohr
 
 
     Adding external electric field

     Computed dipole along edir(3) : 
        Dipole               -0.1839 Ry au,         -0.4675 Debye
        Dipole field         -0.0003 Ry au, 
 
        Potential amp.        0.0322 Ry
        Total length         46.3494 bohr
 

     total cpu time spent up to now is     1248.8 secs

     total energy              =   -3260.25630880 Ry
     estimated scf accuracy    <       0.00490687 Ry

     total magnetization       =    -1.65 Bohr mag/cell
     absolute magnetization    =     1.79 Bohr mag/cell

     iteration # 60     ecut=    36.75 Ry     beta= 0.05
     Davidson diagonalization with overlap
     ethr =  1.28E-06,  avg # of iterations =  1.7

     negative rho (up, down):  1.078E-02 1.057E-02
 
     Adding external electric field

     Computed dipole along edir(3) : 
        Dipole               -0.1958 Ry au,         -0.4978 Debye
        Dipole field         -0.0004 Ry au, 
 
        Potential amp.        0.0343 Ry
        Total length         46.3494 bohr
 
 
     Adding external electric field

     Computed dipole along edir(3) : 
        Dipole               -0.1958 Ry au,         -0.4978 Debye
        Dipole field         -0.0004 Ry au, 
 
        Potential amp.        0.0343 Ry
        Total length         46.3494 bohr
 

     total cpu time spent up to now is     1267.1 secs

     total energy              =   -3260.25650197 Ry
     estimated scf accuracy    <       0.00515830 Ry

     total magnetization       =    -1.65 Bohr mag/cell
     absolute magnetization    =     1.80 Bohr mag/cell

     iteration # 61     ecut=    36.75 Ry     beta= 0.05
     Davidson diagonalization with overlap
     ethr =  1.28E-06,  avg # of iterations =  1.8

     negative rho (up, down):  1.078E-02 1.057E-02
 
     Adding external electric field

     Computed dipole along edir(3) : 
        Dipole               -0.1926 Ry au,         -0.4895 Debye
        Dipole field         -0.0004 Ry au, 
 
        Potential amp.        0.0337 Ry
        Total length         46.3494 bohr
 
 
     Adding external electric field

     Computed dipole along edir(3) : 
        Dipole               -0.1926 Ry au,         -0.4895 Debye
        Dipole field         -0.0004 Ry au, 
 
        Potential amp.        0.0337 Ry
        Total length         46.3494 bohr
 

     total cpu time spent up to now is     1286.0 secs

     total energy              =   -3260.25844519 Ry
     estimated scf accuracy    <       0.00455258 Ry

     total magnetization       =    -1.67 Bohr mag/cell
     absolute magnetization    =     1.81 Bohr mag/cell

     iteration # 62     ecut=    36.75 Ry     beta= 0.05
     Davidson diagonalization with overlap
     ethr =  1.19E-06,  avg # of iterations =  5.2

     negative rho (up, down):  1.077E-02 1.055E-02
 
     Adding external electric field

     Computed dipole along edir(3) : 
        Dipole               -0.2052 Ry au,         -0.5215 Debye
        Dipole field         -0.0004 Ry au, 
 
        Potential amp.        0.0359 Ry
        Total length         46.3494 bohr
 
 
     Adding external electric field

     Computed dipole along edir(3) : 
        Dipole               -0.2052 Ry au,         -0.5215 Debye
        Dipole field         -0.0004 Ry au, 
 
        Potential amp.        0.0359 Ry
        Total length         46.3494 bohr
 

     total cpu time spent up to now is     1306.7 secs

     total energy              =   -3260.25361206 Ry
     estimated scf accuracy    <       0.00575287 Ry

     total magnetization       =    -1.81 Bohr mag/cell
     absolute magnetization    =     1.98 Bohr mag/cell

     iteration # 63     ecut=    36.75 Ry     beta= 0.05
     Davidson diagonalization with overlap
     ethr =  1.19E-06,  avg # of iterations =  9.4

     negative rho (up, down):  1.078E-02 1.055E-02
 
[...]
   -32.5954 -32.5935 -32.5800 -32.5796 -32.5410 -32.5332 -32.5010 -32.4844
   -32.4836 -32.4805 -32.4790 -32.4713 -32.4396 -32.4245 -32.4047 -32.3789
   -32.3733 -32.3233 -32.3146 -32.3113 -32.3055 -32.3021 -32.2690 -32.2046
   -32.1826 -32.1728 -32.1267 -32.1050 -32.1049 -32.0928 -31.9996 -31.9996
   -31.9626 -31.9625 -31.8011 -31.6728 -31.6420 -31.6172 -31.4943 -31.4751
   -16.6612 -16.6595 -16.6057 -16.5844 -16.5082 -16.5012 -16.3361 -16.3319
   -16.2747 -16.1980 -16.1494 -16.1379 -15.9962 -15.9650 -15.9607 -15.9513
   -15.9319 -15.9040 -15.9008 -15.8767 -15.8298 -15.8268 -15.7483 -15.7448
   -15.5508 -15.4962 -15.4727 -15.3651 -15.2297 -14.4011 -14.3983  -7.0804
    -3.7858  -3.7810  -3.6407  -3.6379  -3.5365  -3.4705  -3.4682  -3.4620
    -3.4093  -3.4088  -3.3306  -3.3277  -3.1710  -3.1681  -3.1070  -3.1053
    -3.0910  -3.0814  -3.0389  -2.9975  -2.9655  -2.9524  -2.9401  -2.9216
    -2.9184  -2.9153  -2.8994  -2.8696  -2.8509  -2.8463  -2.6511  -2.6379
    -2.6319  -2.6196  -2.5925  -2.5413  -2.3992  -2.3843  -2.2820  -2.2738
    -2.2460  -2.1591  -1.9955  -1.9686  -1.9438  -1.9097  -1.7807  -1.7706
    -1.7461  -1.7319  -1.6991  -1.6895  -1.6642  -1.5653  -1.4650  -1.4330
    -1.4092  -1.4075  -1.3443  -1.3181  -1.3142  -1.2939  -1.2237  -1.1777
    -1.1535  -1.0995  -1.0880  -1.0171  -0.9934  -0.9831  -0.8096  -0.8046
    -0.6890  -0.6841  -0.6831  -0.6590  -0.2411  -0.1870  -0.1341  -0.0797
    -0.0111   0.0114   0.0118   0.0911   0.1448   0.2068   0.2251   0.3819
     0.4770   0.5775   0.5854   0.6269   0.6366   0.9938   1.5992   1.6358
     2.7464   2.7758   2.8296   2.8650   3.0908   3.1313   3.1401   3.1580
     3.1828

     the Fermi energy is     2.1808 ev

!    total energy              =   -3260.34285224 Ry
     estimated scf accuracy    <       0.00000007 Ry
     smearing contrib. (-TS)   =      -0.00007745 Ry
     internal energy E=F+TS    =   -3260.34277479 Ry

     The total energy is F=E-TS. E is the sum of the following terms:
     one-electron contribution =  -24867.91070774 Ry
     hartree contribution      =   12519.77025027 Ry
     xc contribution           =    -544.74370413 Ry
     ewald contribution        =    9951.02657926 Ry
     electric field correction =       0.00000705 Ry
     one-center paw contrib.   =    -318.48519949 Ry

     total magnetization       =    -2.02 Bohr mag/cell
     absolute magnetization    =     2.09 Bohr mag/cell

     convergence has been achieved in  21 iterations

     negative rho (up, down):  1.129E-02 1.093E-02

     Forces acting on atoms (cartesian axes, Ry/au):

     atom    1 type  1   force =     0.00008212   -0.00002612    0.13588904
     atom    2 type  1   force =    -0.00007486    0.00031622   -0.16802677
     atom    3 type  2   force =     0.00007116   -0.00008115   -0.07271884
     atom    4 type  2   force =     0.00003168    0.00005454    0.03085043
     atom    5 type  2   force =    -0.02826905   -0.00017139   -0.00319887
     atom    6 type  2   force =     0.02826693    0.00032758   -0.00305738
     atom    7 type  1   force =     0.00015399    0.00046577    0.01898266
     atom    8 type  1   force =    -0.00011664   -0.01668401    0.05694961
     atom    9 type  2   force =     0.00016825   -0.00028789   -0.00142714
     atom   10 type  2   force =     0.00017598   -0.00037184   -0.03747322
     atom   11 type  2   force =    -0.00171724    0.00056934    0.00082682
     atom   12 type  2   force =     0.00234391    0.00060341    0.00086896
     atom   13 type  1   force =    -0.00061227   -0.00063507   -0.00300813
     atom   14 type  1   force =    -0.00062263    0.00274816   -0.00086594
     atom   15 type  2   force =    -0.00006351    0.00058250   -0.00180807
     atom   16 type  2   force =     0.00019691   -0.00045609    0.00212980
     atom   17 type  2   force =    -0.00326702   -0.00068695   -0.00134060
     atom   18 type  2   force =     0.00334963   -0.00074860   -0.00141269
     atom   19 type  1   force =    -0.00038557   -0.00126871   -0.00425601
     atom   20 type  1   force =     0.00034543   -0.00001916    0.00355381
     atom   21 type  2   force =     0.00006808    0.00009332    0.10034791
     atom   22 type  2   force =    -0.00022566   -0.00245901   -0.00002249
     atom   23 type  2   force =    -0.07417441    0.00139948   -0.03383889
     atom   24 type  2   force =     0.07411279    0.00183378   -0.03388036
     atom   25 type  1   force =     0.00007693   -0.00009304    0.14535105
     atom   26 type  1   force =    -0.00007682   -0.00040151   -0.16800561
     atom   27 type  2   force =     0.00007707   -0.00018624   -0.07064861
     atom   28 type  2   force =     0.00003251   -0.00000747    0.03071376
     atom   29 type  2   force =    -0.02821876   -0.00050573   -0.00313409
     atom   30 type  2   force =     0.02822016   -0.00004403   -0.00299341
     atom   31 type  1   force =     0.00015520   -0.00041838    0.01837855
     atom   32 type  1   force =    -0.00012074    0.01655390    0.05698134
     atom   33 type  2   force =     0.00012414   -0.00014148   -0.00101985
     atom   34 type  2   force =     0.00006474    0.00013376   -0.02913931
     atom   35 type  2   force =    -0.00158188   -0.00140761    0.00065868
     atom   36 type  2   force =     0.00220949   -0.00146083    0.00070730
     atom   37 type  1   force =    -0.00051825   -0.00020565    0.00057488
     atom   38 type  1   force =    -0.00061864   -0.00273593   -0.00093284
     atom   39 type  2   force =    -0.00003414    0.00162540   -0.00183737
     atom   40 type  2   force =     0.00006751    0.00002659    0.00496460
     atom   41 type  2   force =    -0.00253137    0.00101955   -0.00083415
     atom   42 type  2   force =     0.00261644    0.00104981   -0.00090292
     atom   43 type  1   force =    -0.00025563    0.00127944    0.00155713
     atom   44 type  1   force =     0.00042006    0.00381042    0.00357499
     atom   45 type  2   force =     0.00006831    0.00009629    0.10042463
     atom   46 type  3   force =     0.00004139   -0.00014237   -0.00078861
     atom   47 type  2   force =    -0.07417728   -0.00168969   -0.03383610
     atom   48 type  2   force =     0.07412153   -0.00125330   -0.03387774

     Total force =     0.410365     Total SCF correction =     0.000973
  @ DRIVER MODE: Message from server: STATUS
  @ DRIVER MODE: Message from server: GETFORCE
  @ DRIVER MODE: Returning v,forces,stress,ensemble 

     Writing output data file ./calc.save/
  @ DRIVER MODE: Message from server: STATUS
  @ DRIVER MODE: Message from server: INIT
  @ DRIVER MODE: Receiving replica           0           0
  @ DRIVER MODE: Receiving encoded integer          25
  @ DRIVER MODE:  SCF:  T  FORCE:  T  STRESS:  F  VC:  F  ENSEMBLE:  F
  @ DRIVER MODE:  SCF:  T  FORCE:  T  STRESS:  F  VC:  F  ENSEMBLE:  F
  @ DRIVER MODE: Message from server: STATUS
  @ DRIVER MODE: Message from server: POSDATA
  @ DRIVER MODE: Reading and sharing positions 
  @ DRIVER MODE: Received positions 
     NEW-OLD atomic charge density approx. for the potential

     Check: negative core charge=   -0.000008

     negative rho (up, down):  1.124E-02 1.091E-02
 
     Adding external electric field

     Computed dipole along edir(3) : 
        Dipole               -0.0647 Ry au,         -0.1645 Debye
        Dipole field         -0.0001 Ry au, 
 
        Potential amp.        0.0113 Ry
        Total length         46.3494 bohr
 
 
     Adding external electric field

     Computed dipole along edir(3) : 
        Dipole               -0.0647 Ry au,         -0.1645 Debye
        Dipole field         -0.0001 Ry au, 
 
        Potential amp.        0.0113 Ry
        Total length         46.3494 bohr
 
     Generating pointlists ...

     total cpu time spent up to now is    28478.6 secs

     Self-consistent Calculation

     iteration #  1     ecut=    36.75 Ry     beta= 0.05
     Davidson diagonalization with overlap
     c_bands:  1 eigenvalues not converged
     c_bands:  1 eigenvalues not converged
     c_bands:  1 eigenvalues not converged
     c_bands:  1 eigenvalues not converged
     c_bands:  1 eigenvalues not converged
     c_bands:  1 eigenvalues not converged
     c_bands:  1 eigenvalues not converged
     c_bands:  1 eigenvalues not converged
     c_bands:  1 eigenvalues not converged
     c_bands:  1 eigenvalues not converged
     c_bands:  2 eigenvalues not converged
     c_bands:  2 eigenvalues not converged
     c_bands:  2 eigenvalues not converged
     c_bands:  1 eigenvalues not converged
     c_bands:  2 eigenvalues not converged
     c_bands:  2 eigenvalues not converged
     c_bands:  1 eigenvalues not converged
     ethr =  2.74E-11,  avg # of iterations = 20.0

     negative rho (up, down):  1.125E-02 1.092E-02
 
     Adding external electric field

     Computed dipole along edir(3) : 
        Dipole               -0.0605 Ry au,         -0.1537 Debye
        Dipole field         -0.0001 Ry au, 
 
        Potential amp.        0.0106 Ry
        Total length         46.3494 bohr
 
 
     Adding external electric field

     Computed dipole along edir(3) : 
        Dipole               -0.0605 Ry au,         -0.1537 Debye
        Dipole field         -0.0001 Ry au, 
 
        Potential amp.        0.0106 Ry
        Total length         46.3494 bohr
 

     total cpu time spent up to now is    28580.6 secs

     total energy              =   -3260.34295024 Ry
     estimated scf accuracy    <       0.00023564 Ry

     total magnetization       =    -2.02 Bohr mag/cell
     absolute magnetization    =     2.09 Bohr mag/cell

     iteration #  2     ecut=    36.75 Ry     beta= 0.05
     Davidson diagonalization with overlap
     ethr =  6.17E-08,  avg # of iterations =  1.0

     negative rho (up, down):  1.125E-02 1.092E-02
 
     Adding external electric field

     Computed dipole along edir(3) : 
        Dipole               -0.0640 Ry au,         -0.1628 Debye
        Dipole field         -0.0001 Ry au, 
 
        Potential amp.        0.0112 Ry
        Total length         46.3494 bohr
 
 
     Adding external electric field

     Computed dipole along edir(3) : 
        Dipole               -0.0640 Ry au,         -0.1628 Debye
        Dipole field         -0.0001 Ry au, 
 
        Potential amp.        0.0112 Ry
        Total length         46.3494 bohr
 

     total cpu time spent up to now is    28597.5 secs

     total energy              =   -3260.34294685 Ry
     estimated scf accuracy    <       0.00018476 Ry

     total magnetization       =    -2.01 Bohr mag/cell
     absolute magnetization    =     2.08 Bohr mag/cell

     iteration #  3     ecut=    36.75 Ry     beta= 0.05
     Davidson diagonalization with overlap
     ethr =  4.84E-08,  avg # of iterations =  1.0

     negative rho (up, down):  1.125E-02 1.091E-02
 
     Adding external electric field

     Computed dipole along edir(3) : 
        Dipole               -0.0667 Ry au,         -0.1694 Debye
        Dipole field         -0.0001 Ry au, 
 
        Potential amp.        0.0117 Ry
        Total length         46.3494 bohr
 
 
     Adding external electric field

     Computed dipole along edir(3) : 
        Dipole               -0.0667 Ry au,         -0.1694 Debye
        Dipole field         -0.0001 Ry au, 
 
        Potential amp.        0.0117 Ry
        Total length         46.3494 bohr
 

     total cpu time spent up to now is    28614.3 secs

     total energy              =   -3260.34291717 Ry
     estimated scf accuracy    <       0.00011112 Ry

     total magnetization       =    -2.01 Bohr mag/cell
     absolute magnetization    =     2.09 Bohr mag/cell

     iteration #  4     ecut=    36.75 Ry     beta= 0.05
     Davidson diagonalization with overlap
     ethr =  2.91E-08,  avg # of iterations =  5.7

     negative rho (up, down):  1.125E-02 1.091E-02
 
     Adding external electric field

     Computed dipole along edir(3) : 
        Dipole               -0.0682 Ry au,         -0.1734 Debye
        Dipole field         -0.0001 Ry au, 
 
        Potential amp.        0.0119 Ry
        Total length         46.3494 bohr
 
 
     Adding external electric field

     Computed dipole along edir(3) : 
        Dipole               -0.0682 Ry au,         -0.1734 Debye
        Dipole field         -0.0001 Ry au, 
 
        Potential amp.        0.0119 Ry
        Total length         46.3494 bohr
 

     total cpu time spent up to now is    28640.6 secs

     total energy              =   -3260.34294867 Ry
     estimated scf accuracy    <       0.00005272 Ry

     total magnetization       =    -2.01 Bohr mag/cell
     absolute magnetization    =     2.09 Bohr mag/cell

     iteration #  5     ecut=    36.75 Ry     beta= 0.05
     Davidson diagonalization with overlap
     ethr =  1.38E-08,  avg # of iterations =  2.0

     negative rho (up, down):  1.126E-02 1.091E-02
 
     Adding external electric field

     Computed dipole along edir(3) : 
        Dipole               -0.0704 Ry au,         -0.1788 Debye
        Dipole field         -0.0001 Ry au, 
 
        Potential amp.        0.0123 Ry
        Total length         46.3494 bohr
 
 
     Adding external electric field

     Computed dipole along edir(3) : 
        Dipole               -0.0704 Ry au,         -0.1788 Debye
        Dipole field         -0.0001 Ry au, 
 
        Potential amp.        0.0123 Ry
        Total length         46.3494 bohr
 

     total cpu time spent up to now is    28667.6 secs

     total energy              =   -3260.34294043 Ry
     estimated scf accuracy    <       0.00010814 Ry

     total magnetization       =    -2.02 Bohr mag/cell
     absolute magnetization    =     2.09 Bohr mag/cell

     iteration #  6     ecut=    36.75 Ry     beta= 0.05
     Davidson diagonalization with overlap
     ethr =  1.38E-08,  avg # of iterations =  2.0

     negative rho (up, down):  1.127E-02 1.092E-02
 
     Adding external electric field

     Computed dipole along edir(3) : 
        Dipole               -0.0637 Ry au,         -0.1619 Debye
        Dipole field         -0.0001 Ry au, 
 
        Potential amp.        0.0111 Ry
        Total length         46.3494 bohr
 
 
     Adding external electric field

     Computed dipole along edir(3) : 
        Dipole               -0.0637 Ry au,         -0.1619 Debye
        Dipole field         -0.0001 Ry au, 
 
        Potential amp.        0.0111 Ry
        Total length         46.3494 bohr
 

     total cpu time spent up to now is    28686.7 secs

     total energy              =   -3260.34291891 Ry
     estimated scf accuracy    <       0.00022249 Ry

     total magnetization       =    -2.02 Bohr mag/cell
     absolute magnetization    =     2.10 Bohr mag/cell

     iteration #  7     ecut=    36.75 Ry     beta= 0.05
     Davidson diagonalization with overlap
     ethr =  1.38E-08,  avg # of iterations =  5.0

     negative rho (up, down):  1.127E-02 1.092E-02
 
     Adding external electric field

     Computed dipole along edir(3) : 
        Dipole               -0.0629 Ry au,         -0.1599 Debye
        Dipole field         -0.0001 Ry au, 
 
        Potential amp.        0.0110 Ry
        Total length         46.3494 bohr
 
 
     Adding external electric field

     Computed dipole along edir(3) : 
        Dipole               -0.0629 Ry au,         -0.1599 Debye
        Dipole field         -0.0001 Ry au, 
 
        Potential amp.        0.0110 Ry
        Total length         46.3494 bohr
 

     total cpu time spent up to now is    28713.2 secs

     total energy              =   -3260.34294437 Ry
     estimated scf accuracy    <       0.00004067 Ry

     total magnetization       =    -2.01 Bohr mag/cell
     absolute magnetization    =     2.09 Bohr mag/cell

     iteration #  8     ecut=    36.75 Ry     beta= 0.05
     Davidson diagonalization with overlap
     ethr =  1.06E-08,  avg # of iterations =  1.0

     negative rho (up, down):  1.127E-02 1.092E-02
 
     Adding external electric field

     Computed dipole along edir(3) : 
        Dipole               -0.0635 Ry au,         -0.1613 Debye
        Dipole field         -0.0001 Ry au, 
 
        Potential amp.        0.0111 Ry
        Total length         46.3494 bohr
 
 
     Adding external electric field

     Computed dipole along edir(3) : 
        Dipole               -0.0635 Ry au,         -0.1613 Debye
        Dipole field         -0.0001 Ry au, 
 
        Potential amp.        0.0111 Ry
        Total length         46.3494 bohr
 

     total cpu time spent up to now is    28730.1 secs

     total energy              =   -3260.34294153 Ry
     estimated scf accuracy    <       0.00006406 Ry

     total magnetization       =    -2.01 Bohr mag/cell
     absolute magnetization    =     2.09 Bohr mag/cell

     iteration #  9     ecut=    36.75 Ry     beta= 0.05
     Davidson diagonalization with overlap
     ethr =  1.06E-08,  avg # of iterations =  1.0

     negative rho (up, down):  1.127E-02 1.091E-02
 
     Adding external electric field

     Computed dipole along edir(3) : 
        Dipole               -0.0654 Ry au,         -0.1662 Debye
        Dipole field         -0.0001 Ry au, 
 
        Potential amp.        0.0114 Ry
        Total length         46.3494 bohr
 
 
     Adding external electric field

     Computed dipole along edir(3) : 
        Dipole               -0.0654 Ry au,         -0.1662 Debye
        Dipole field         -0.0001 Ry au, 
 
        Potential amp.        0.0114 Ry
        Total length         46.3494 bohr
 

     total cpu time spent up to now is    28747.0 secs

     total energy              =   -3260.34293037 Ry
     estimated scf accuracy    <       0.00004300 Ry

     total magnetization       =    -2.01 Bohr mag/cell
     absolute magnetization    =     2.09 Bohr mag/cell

     iteration # 10     ecut=    36.75 Ry     beta= 0.05
     Davidson diagonalization with overlap
     ethr =  1.06E-08,  avg # of iterations =  4.9

     negative rho (up, down):  1.127E-02 1.091E-02
 
     Adding external electric field

     Computed dipole along edir(3) : 
        Dipole               -0.0655 Ry au,         -0.1666 Debye
        Dipole field         -0.0001 Ry au, 
 
        Potential amp.        0.0115 Ry
        Total length         46.3494 bohr
 
 
     Adding external electric field

     Computed dipole along edir(3) : 
        Dipole               -0.0655 Ry au,         -0.1666 Debye
        Dipole field         -0.0001 Ry au, 
 
        Potential amp.        0.0115 Ry
        Total length         46.3494 bohr
 

     total cpu time spent up to now is    28772.2 secs

     total energy              =   -3260.34293934 Ry
     estimated scf accuracy    <       0.00001417 Ry

     total magnetization       =    -2.01 Bohr mag/cell
     absolute magnetization    =     2.09 Bohr mag/cell

     iteration # 11     ecut=    36.75 Ry     beta= 0.05
     Davidson diagonalization with overlap
     ethr =  3.71E-09,  avg # of iterations =  1.0

     negative rho (up, down):  1.127E-02 1.091E-02
 
     Adding external electric field

     Computed dipole along edir(3) : 
        Dipole               -0.0656 Ry au,         -0.1667 Debye
        Dipole field         -0.0001 Ry au, 
 
        Potential amp.        0.0115 Ry
        Total length         46.3494 bohr
 
 
     Adding external electric field

     Computed dipole along edir(3) : 
        Dipole               -0.0656 Ry au,         -0.1667 Debye
        Dipole field         -0.0001 Ry au, 
 
        Potential amp.        0.0115 Ry
        Total length         46.3494 bohr
 

     total cpu time spent up to now is    28789.1 secs

     total energy              =   -3260.34293700 Ry
     estimated scf accuracy    <       0.00001068 Ry

     total magnetization       =    -2.01 Bohr mag/cell
     absolute magnetization    =     2.09 Bohr mag/cell

     iteration # 12     ecut=    36.75 Ry     beta= 0.05
     Davidson diagonalization with overlap
