
     Program PWSCF v.6.7GPU starts on 12Feb2022 at 18:30:55 

     This program is part of the open-source Quantum ESPRESSO suite
     for quantum simulation of materials; please cite
         "P. Giannozzi et al., J. Phys.:Condens. Matter 21 395502 (2009);
         "P. Giannozzi et al., J. Phys.:Condens. Matter 29 465901 (2017);
         "P. Giannozzi et al., J. Chem. Phys. 152 154105 (2020);
          URL http://www.quantum-espresso.org", 
     in publications or presentations arising from this work. More details at
     http://www.quantum-espresso.org/quote

     Parallel version (MPI), running on    16 processors

     MPI processes distributed on     1 nodes
     R & G space division:  proc/nbgrp/npool/nimage =      16
     Reading input from /storage/coda1/p-amedford6/0/bchen380/C22/qe_3966627.sched-torque.pace.gatech.edu/pw.inp
Warning: card &CELL ignored
Warning: card   CELL_DYNAMICS='IPI', ignored
Warning: card / ignored

     Current dimensions of program PWSCF are:
     Max number of different atomic species (ntypx) = 10
     Max number of k-points (npk) =  40000
     Max angular momentum in pseudopotentials (lmaxx) =  3
     Message from routine cell_base_init:
     DEPRECATED: use true lattice parameter, not A to a.u. conversion factor
     file O.UPF: wavefunction(s)  2P renormalized
     file C.UPF: wavefunction(s)  2S 2P renormalized

     **************************************************************************
     Initializing libbeef V0.1.2 with the BEEF-vdW functional.
     Citation: Wellendorff et al., PRB 85, 235149 (2012).
     **************************************************************************


     IMPORTANT: XC functional enforced from input :
     Exchange-correlation= BEEF-VDW
                           (   1   4  43  14   2   0   0)
     Any further DFT definition will be discarded
     Please, verify this is what you really want


     Subspace diagonalization in iterative solution of the eigenvalue problem:
     one sub-group per band group will be used
     scalapack distributed-memory algorithm (size of sub-group:  4*  4 procs)

  @ DRIVER MODE: Connecting to 
 qe_1064200_3966627.sched-torque.pace.gatech.eduyeagkq14_scratch
  using UNIX socket
  @ DRIVER MODE: Message from server: STATUS
  @ DRIVER MODE: Message from server: INIT
  @ DRIVER MODE: Receiving replica           0          -1
  @ DRIVER MODE: Receiving encoded integer          25
  @ DRIVER MODE:  SCF:  T  FORCE:  T  STRESS:  F  VC:  F  ENSEMBLE:  F
  @ DRIVER MODE:  SCF:  T  FORCE:  T  STRESS:  F  VC:  F  ENSEMBLE:  F
 
     Parallelization info
     --------------------
     sticks:   dense  smooth     PW     G-vecs:    dense   smooth      PW
     Min         256     102     28                49498    12526    1868
     Max         257     103     29                49510    12535    1881
     Sum        4097    1637    459               792059   200495   30031
 
     Using Slab Decomposition
 


     bravais-lattice index     =            0
     lattice parameter (alat)  =       1.8897  a.u.
     unit-cell volume          =    6658.9804 (a.u.)^3
     number of atoms/cell      =           48
     number of atomic types    =            3
     number of electrons       =       382.00
     number of Kohn-Sham states=          201
     kinetic-energy cutoff     =      36.7493  Ry
     charge density cutoff     =     367.4932  Ry
     scf convergence threshold =      7.3E-08
     mixing beta               =       0.0500
     number of iterations used =            8  plain     mixing
     Exchange-correlation= BEEF-VDW
                           (   1   4  43  14   2   0   0)

     celldm(1)=   1.889726  celldm(2)=   0.000000  celldm(3)=   0.000000
     celldm(4)=   0.000000  celldm(5)=   0.000000  celldm(6)=   0.000000

     crystal axes: (cart. coord. in units of alat)
               a(1) = (   6.579727   0.000000   0.000000 )  
               a(2) = (  -0.000775   5.961596   0.000000 )  
               a(3) = (   0.000000   0.000000  25.155947 )  

     reciprocal axes: (cart. coord. in units 2 pi/alat)
               b(1) = (  0.151982  0.000020  0.000000 )  
               b(2) = (  0.000000  0.167740  0.000000 )  
               b(3) = (  0.000000  0.000000  0.039752 )  


     PseudoPot. # 1 for Ti read from file:
     /storage/coda1/p-amedford6/0/shared/rich_project_chbe-medford/medford-share/data/pseudos_module/espresso/esp_pseudos_old/Ti.UPF
     MD5 check sum: 88a00a6731bd790ddea75d31a80cb452
     Pseudo is Ultrasoft + core correction, Zval = 12.0
     Generated by new atomic code, or converted to UPF format
     Using radial grid of  851 points,  6 beta functions with: 
                l(1) =   0
                l(2) =   0
                l(3) =   1
                l(4) =   1
                l(5) =   2
                l(6) =   2
     Q(r) pseudized with  6 coefficients,  rinner =    1.000   1.000   1.000
                                                       1.000   1.000

     PseudoPot. # 2 for O  read from file:
     /storage/coda1/p-amedford6/0/shared/rich_project_chbe-medford/medford-share/data/pseudos_module/espresso/esp_pseudos_old/O.UPF
     MD5 check sum: 0234752ac141de4415c5fc33072bef88
     Pseudo is Projector augmented-wave + core cor, Zval =  6.0
     Generated using "atomic" code by A. Dal Corso  v.5.0.99 svn rev. 10869
     Shape of augmentation charge: BESSEL
     Using radial grid of 1095 points,  4 beta functions with: 
                l(1) =   0
                l(2) =   0
                l(3) =   1
                l(4) =   1
     Q(r) pseudized with 0 coefficients 


     PseudoPot. # 3 for C  read from file:
     /storage/coda1/p-amedford6/0/shared/rich_project_chbe-medford/medford-share/data/pseudos_module/espresso/esp_pseudos_old/C.UPF
     MD5 check sum: 5d2aebdfa2cae82b50a7e79e9516da0f
     Pseudo is Projector augmented-wave + core cor, Zval =  4.0
     Generated using "atomic" code by A. Dal Corso  v.5.1
     Shape of augmentation charge: PSQ
     Using radial grid of 1073 points,  4 beta functions with: 
                l(1) =   0
                l(2) =   0
                l(3) =   1
                l(4) =   1
     Q(r) pseudized with 0 coefficients 


     atomic species   valence    mass     pseudopotential
        Ti1           12.00    47.86700     Ti( 1.00)
        O1             6.00    15.99900     O ( 1.00)
        C1             4.00    12.01100     C ( 1.00)

     Starting magnetic structure 
     atomic species   magnetization
        Ti1          0.000
        O1           0.000
        C1           0.000

     No symmetry found



   Cartesian axes

     site n.     atom                  positions (alat units)
         1           Ti1 tau(   1) = (   0.0004258   2.9801865   6.0000000  )
         2           Ti1 tau(   2) = (   3.2906075   1.4906267   6.0002472  )
         3           O1  tau(   3) = (   0.0006271   0.0005054   7.9858123  )
         4           O1  tau(   4) = (   3.2906025   0.0005020   7.3038282  )
         5           O1  tau(   5) = (   4.5942328   1.4918067   9.2879030  )
         6           O1  tau(   6) = (   1.9868534   1.4903216   9.2879459  )
         7           Ti1 tau(   7) = (   3.2905683   2.9818392   9.1597947  )
         8           Ti1 tau(   8) = (   0.0009689   1.5052867   9.3302970  )
         9           O1  tau(   9) = (   3.2918610   0.0002967  11.3389496  )
        10           O1  tau(  10) = (   0.0007044   0.0001637  10.5878211  )
        11           O1  tau(  11) = (   1.3092974   1.5018082  12.6332746  )
        12           O1  tau(  12) = (   5.2768401   1.5004084  12.6356091  )
        13           Ti1 tau(  13) = (   6.5772371   2.9784640  12.8475192  )
        14           Ti1 tau(  14) = (   3.2854093   1.4922340  12.4917689  )
        15           O1  tau(  15) = (   0.0059242   5.9433999  14.5922398  )
        16           O1  tau(  16) = (   3.2892956   0.0016744  13.9398285  )
        17           O1  tau(  17) = (   4.5268952   1.4960749  16.0946382  )
        18           O1  tau(  18) = (   2.0563034   1.4980130  16.0935717  )
        19           Ti1 tau(  19) = (   3.2910100   2.9833125  15.7306424  )
        20           Ti1 tau(  20) = (   6.5726522   1.4964315  16.1405760  )
        21           O1  tau(  21) = (   3.2904802   0.0005063   4.7018136  )
        22           O1  tau(  22) = (   0.0027655   5.9510521  17.2415874  )
        23           O1  tau(  23) = (   1.3043587   1.4918075   6.0039043  )
        24           O1  tau(  24) = (   5.2767064   1.4903225   6.0039473  )
        25           Ti1 tau(  25) = (   0.0000382   5.9609847   6.0000000  )
        26           Ti1 tau(  26) = (   3.2902200   4.4714249   6.0002472  )
        27           O1  tau(  27) = (   0.0002396   2.9813036   7.9858123  )
        28           O1  tau(  28) = (   3.2902150   2.9813002   7.3038282  )
        29           O1  tau(  29) = (   4.5938453   4.4726049   9.2879030  )
        30           O1  tau(  30) = (   1.9864658   4.4711199   9.2879459  )
        31           Ti1 tau(  31) = (   3.2909982   0.0016570   9.1583503  )
        32           Ti1 tau(  32) = (   0.0005865   4.4518293   9.3323505  )
        33           O1  tau(  33) = (   3.2919723   2.9809090  11.3355310  )
        34           O1  tau(  34) = (   0.0003571   2.9798178  10.5649370  )
        35           O1  tau(  35) = (   1.3089788   4.4566395  12.6340242  )
        36           O1  tau(  36) = (   5.2761848   4.4575845  12.6364610  )
        37           Ti1 tau(  37) = (   6.5767340   5.9603691  12.7627119  )
        38           Ti1 tau(  38) = (   3.2851390   4.4682287  12.4917640  )
        39           O1  tau(  39) = (   0.0013370   2.9610405  14.6811970  )
        40           O1  tau(  40) = (   3.2914100   2.9826330  13.9310107  )
        41           O1  tau(  41) = (   4.5272274   4.4704557  16.0948956  )
        42           O1  tau(  42) = (   2.0558573   4.4684086  16.0938808  )
        43           Ti1 tau(  43) = (   3.2815352   0.0044995  15.7431443  )
        44           Ti1 tau(  44) = (   6.5701182   4.5707120  16.1332276  )
        45           O1  tau(  45) = (   3.2900926   2.9813045   4.7018136  )
        46           C1  tau(  46) = (   0.0035505   2.9607554  17.4525481  )
        47           O1  tau(  47) = (   1.3039711   4.4726057   6.0039043  )
        48           O1  tau(  48) = (   5.2763189   4.4711207   6.0039473  )

     number of k points=    10  Fermi-Dirac smearing, width (Ry)=  0.0007
                       cart. coord. in units 2pi/alat
        k(    1) = (   0.0000000   0.0000000   0.0000000), wk =   0.0625000
        k(    2) = (   0.0000000   0.0419351   0.0000000), wk =   0.1250000
        k(    3) = (   0.0000000  -0.0838702   0.0000000), wk =   0.0625000
        k(    4) = (   0.0379955   0.0000049   0.0000000), wk =   0.1250000
        k(    5) = (   0.0379955   0.0419400   0.0000000), wk =   0.1250000
        k(    6) = (   0.0379955  -0.0838652   0.0000000), wk =   0.1250000
        k(    7) = (   0.0379955  -0.0419301   0.0000000), wk =   0.1250000
        k(    8) = (  -0.0759910  -0.0000099   0.0000000), wk =   0.0625000
        k(    9) = (  -0.0759910   0.0419252   0.0000000), wk =   0.1250000
        k(   10) = (  -0.0759910  -0.0838800   0.0000000), wk =   0.0625000

     Dense  grid:   792059 G-vectors     FFT dimensions: (  75,  72, 300)

     Smooth grid:   200495 G-vectors     FFT dimensions: (  48,  45, 192)

     Estimated max dynamical RAM per process >     378.01 MB

     Estimated total dynamical RAM >       5.91 GB

     Check: negative core charge=   -0.000008
     Generating pointlists ...
     new r_m :   0.7302 (alat units)  1.3800 (a.u.) for type    1
     new r_m :   0.7302 (alat units)  1.3800 (a.u.) for type    2
     new r_m :   0.8110 (alat units)  1.5326 (a.u.) for type    3

     Initial potential from superposition of free atoms

     starting charge  365.99921, renormalised to  382.00000

     negative rho (up, down):  1.202E-02 1.202E-02


     %%%%%%%%%%%%%%%%%%%%%%%%%%%%%%%%%%%%%%%%%%%%%%%%%%%%%%%%%%%%%%%%%%%%%%%%
     %                                                                      %
     % You are using vdW-DF, which was implemented by the Thonhauser group. %
     % Please cite the following two papers that made this development      %
     % possible and the two reviews that describe the various versions:     %
     %                                                                      %
     %   T. Thonhauser et al., PRL 115, 136402 (2015).                      %
     %   T. Thonhauser et al., PRB 76, 125112 (2007).                       %
     %   K. Berland et al., Rep. Prog. Phys. 78, 066501 (2015).             %
     %   D.C. Langreth et al., J. Phys.: Condens. Matter 21, 084203 (2009). %
     %                                                                      %
     %                                                                      %
     % If you are calculating the stress with vdW-DF, please also cite:     %
     %                                                                      %
     %   R. Sabatini et al., J. Phys.: Condens. Matter 24, 424209 (2012).   %
     %                                                                      %
     %%%%%%%%%%%%%%%%%%%%%%%%%%%%%%%%%%%%%%%%%%%%%%%%%%%%%%%%%%%%%%%%%%%%%%%%


 
     Adding external electric field

     Computed dipole along edir(3) : 
        Dipole                0.5348 Ry au,          1.3594 Debye
        Dipole field          0.0010 Ry au, 
 
        Potential amp.       -0.0936 Ry
        Total length         46.3494 bohr
 
 
     Adding external electric field

     Computed dipole along edir(3) : 
        Dipole                0.5348 Ry au,          1.3594 Debye
        Dipole field          0.0010 Ry au, 
 
        Potential amp.       -0.0936 Ry
        Total length         46.3494 bohr
 
     Starting wfcs are  288 randomized atomic wfcs
     Checking if some PAW data can be deallocated... 
  @ DRIVER MODE: Message from server: STATUS
  @ DRIVER MODE: Message from server: POSDATA
  @ DRIVER MODE: Reading and sharing cell 
  @ DRIVER MODE: Reading and sharing positions 
  @ DRIVER MODE: Received positions 

     total cpu time spent up to now is       18.0 secs

     Self-consistent Calculation

     iteration #  1     ecut=    36.75 Ry     beta= 0.05
     Davidson diagonalization with overlap
     ethr =  1.00E-02,  avg # of iterations =  2.0

     negative rho (up, down):  1.228E-02 1.228E-02
 
     Adding external electric field

     Computed dipole along edir(3) : 
        Dipole                0.3022 Ry au,          0.7680 Debye
        Dipole field          0.0006 Ry au, 
 
        Potential amp.       -0.0529 Ry
        Total length         46.3494 bohr
 
 
     Adding external electric field

     Computed dipole along edir(3) : 
        Dipole                0.3022 Ry au,          0.7680 Debye
        Dipole field          0.0006 Ry au, 
 
        Potential amp.       -0.0529 Ry
        Total length         46.3494 bohr
 

     total cpu time spent up to now is       60.5 secs

     total energy              =   -3261.53977811 Ry
     estimated scf accuracy    <      12.25158078 Ry

     total magnetization       =     0.00 Bohr mag/cell
     absolute magnetization    =     0.07 Bohr mag/cell

     iteration #  2     ecut=    36.75 Ry     beta= 0.05
     Davidson diagonalization with overlap
     ethr =  3.21E-03,  avg # of iterations =  1.0

     negative rho (up, down):  1.392E-02 1.392E-02
 
     Adding external electric field

     Computed dipole along edir(3) : 
        Dipole               -0.9672 Ry au,         -2.4583 Debye
        Dipole field         -0.0018 Ry au, 
 
        Potential amp.        0.1692 Ry
        Total length         46.3494 bohr
 
 
     Adding external electric field

     Computed dipole along edir(3) : 
        Dipole               -0.9672 Ry au,         -2.4583 Debye
        Dipole field         -0.0018 Ry au, 
 
        Potential amp.        0.1692 Ry
        Total length         46.3494 bohr
 

     total cpu time spent up to now is       77.3 secs

     total energy              =   -3257.57331303 Ry
     estimated scf accuracy    <       8.98754832 Ry

     total magnetization       =     0.00 Bohr mag/cell
     absolute magnetization    =     0.06 Bohr mag/cell

     iteration #  3     ecut=    36.75 Ry     beta= 0.05
     Davidson diagonalization with overlap
     ethr =  2.35E-03,  avg # of iterations =  9.2

     negative rho (up, down):  1.389E-02 1.389E-02
 
     Adding external electric field

     Computed dipole along edir(3) : 
        Dipole               -0.7124 Ry au,         -1.8106 Debye
        Dipole field         -0.0013 Ry au, 
 
        Potential amp.        0.1246 Ry
        Total length         46.3494 bohr
 
 
     Adding external electric field

     Computed dipole along edir(3) : 
        Dipole               -0.7124 Ry au,         -1.8106 Debye
        Dipole field         -0.0013 Ry au, 
 
        Potential amp.        0.1246 Ry
        Total length         46.3494 bohr
 

     total cpu time spent up to now is      109.4 secs

     total energy              =   -3261.21722500 Ry
     estimated scf accuracy    <      69.93578810 Ry

     total magnetization       =    -0.06 Bohr mag/cell
     absolute magnetization    =     0.20 Bohr mag/cell

     iteration #  4     ecut=    36.75 Ry     beta= 0.05
     Davidson diagonalization with overlap
     ethr =  2.35E-03,  avg # of iterations =  1.1

     negative rho (up, down):  1.374E-02 1.374E-02
 
     Adding external electric field

     Computed dipole along edir(3) : 
        Dipole               -0.5401 Ry au,         -1.3727 Debye
        Dipole field         -0.0010 Ry au, 
 
        Potential amp.        0.0945 Ry
        Total length         46.3494 bohr
 
 
     Adding external electric field

     Computed dipole along edir(3) : 
        Dipole               -0.5401 Ry au,         -1.3727 Debye
        Dipole field         -0.0010 Ry au, 
 
        Potential amp.        0.0945 Ry
        Total length         46.3494 bohr
 

     total cpu time spent up to now is      127.1 secs

     total energy              =   -3260.78604307 Ry
     estimated scf accuracy    <      37.77950792 Ry

     total magnetization       =    -0.12 Bohr mag/cell
     absolute magnetization    =     0.18 Bohr mag/cell

     iteration #  5     ecut=    36.75 Ry     beta= 0.05
     Davidson diagonalization with overlap
     ethr =  2.35E-03,  avg # of iterations =  1.0

     negative rho (up, down):  1.385E-02 1.384E-02
 
     Adding external electric field

     Computed dipole along edir(3) : 
        Dipole               -0.5469 Ry au,         -1.3900 Debye
        Dipole field         -0.0010 Ry au, 
 
        Potential amp.        0.0957 Ry
        Total length         46.3494 bohr
 
 
     Adding external electric field

     Computed dipole along edir(3) : 
        Dipole               -0.5469 Ry au,         -1.3900 Debye
        Dipole field         -0.0010 Ry au, 
 
        Potential amp.        0.0957 Ry
        Total length         46.3494 bohr
 

     total cpu time spent up to now is      145.0 secs

     total energy              =   -3260.82926560 Ry
     estimated scf accuracy    <      34.77712419 Ry

     total magnetization       =    -0.07 Bohr mag/cell
     absolute magnetization    =     0.17 Bohr mag/cell

     iteration #  6     ecut=    36.75 Ry     beta= 0.05
     Davidson diagonalization with overlap
     ethr =  2.35E-03,  avg # of iterations =  1.0

     negative rho (up, down):  1.396E-02 1.395E-02
 
     Adding external electric field

     Computed dipole along edir(3) : 
        Dipole               -0.5601 Ry au,         -1.4236 Debye
        Dipole field         -0.0011 Ry au, 
 
        Potential amp.        0.0980 Ry
        Total length         46.3494 bohr
 
 
     Adding external electric field

     Computed dipole along edir(3) : 
        Dipole               -0.5601 Ry au,         -1.4236 Debye
        Dipole field         -0.0011 Ry au, 
 
        Potential amp.        0.0980 Ry
        Total length         46.3494 bohr
 

     total cpu time spent up to now is      161.7 secs

     total energy              =   -3260.83418895 Ry
     estimated scf accuracy    <      35.26085412 Ry

     total magnetization       =    -0.08 Bohr mag/cell
     absolute magnetization    =     0.16 Bohr mag/cell

     iteration #  7     ecut=    36.75 Ry     beta= 0.05
     Davidson diagonalization with overlap
     ethr =  2.35E-03,  avg # of iterations =  1.0

     negative rho (up, down):  1.389E-02 1.400E-02
 
     Adding external electric field

     Computed dipole along edir(3) : 
        Dipole                0.6983 Ry au,          1.7748 Debye
        Dipole field          0.0013 Ry au, 
 
        Potential amp.       -0.1222 Ry
        Total length         46.3494 bohr
 
 
     Adding external electric field

     Computed dipole along edir(3) : 
        Dipole                0.6983 Ry au,          1.7748 Debye
        Dipole field          0.0013 Ry au, 
 
        Potential amp.       -0.1222 Ry
        Total length         46.3494 bohr
 

     total cpu time spent up to now is      178.4 secs

     total energy              =   -3259.06232696 Ry
     estimated scf accuracy    <      35.15657970 Ry

     total magnetization       =    -0.08 Bohr mag/cell
     absolute magnetization    =     0.16 Bohr mag/cell

     iteration #  8     ecut=    36.75 Ry     beta= 0.05
     Davidson diagonalization with overlap
     ethr =  2.35E-03,  avg # of iterations =  5.9

     negative rho (up, down):  1.359E-02 1.368E-02
 
     Adding external electric field

     Computed dipole along edir(3) : 
        Dipole                0.6395 Ry au,          1.6255 Debye
        Dipole field          0.0012 Ry au, 
 
        Potential amp.       -0.1119 Ry
        Total length         46.3494 bohr
 
 
     Adding external electric field

     Computed dipole along edir(3) : 
        Dipole                0.6395 Ry au,          1.6255 Debye
        Dipole field          0.0012 Ry au, 
 
        Potential amp.       -0.1119 Ry
        Total length         46.3494 bohr
 

     total cpu time spent up to now is      212.8 secs

     total energy              =   -3260.29990123 Ry
     estimated scf accuracy    <       5.37086659 Ry

     total magnetization       =    -0.03 Bohr mag/cell
     absolute magnetization    =     0.20 Bohr mag/cell

     iteration #  9     ecut=    36.75 Ry     beta= 0.05
     Davidson diagonalization with overlap
     ethr =  1.41E-03,  avg # of iterations =  2.8

     negative rho (up, down):  1.330E-02 1.338E-02
 
     Adding external electric field

     Computed dipole along edir(3) : 
        Dipole                0.7714 Ry au,          1.9606 Debye
        Dipole field          0.0015 Ry au, 
 
        Potential amp.       -0.1349 Ry
        Total length         46.3494 bohr
 
 
     Adding external electric field

     Computed dipole along edir(3) : 
        Dipole                0.7714 Ry au,          1.9606 Debye
        Dipole field          0.0015 Ry au, 
 
        Potential amp.       -0.1349 Ry
        Total length         46.3494 bohr
 

     total cpu time spent up to now is      259.9 secs

     total energy              =   -3260.51278859 Ry
     estimated scf accuracy    <       7.98004157 Ry

     total magnetization       =    -0.06 Bohr mag/cell
     absolute magnetization    =     0.27 Bohr mag/cell

     iteration # 10     ecut=    36.75 Ry     beta= 0.05
     Davidson diagonalization with overlap
     ethr =  1.41E-03,  avg # of iterations =  1.6

     negative rho (up, down):  1.263E-02 1.264E-02
 
     Adding external electric field

     Computed dipole along edir(3) : 
        Dipole                1.0715 Ry au,          2.7235 Debye
        Dipole field          0.0020 Ry au, 
 
        Potential amp.       -0.1874 Ry
        Total length         46.3494 bohr
 
 
     Adding external electric field

     Computed dipole along edir(3) : 
        Dipole                1.0715 Ry au,          2.7235 Debye
        Dipole field          0.0020 Ry au, 
 
        Potential amp.       -0.1874 Ry
        Total length         46.3494 bohr
 

     total cpu time spent up to now is      277.3 secs

     total energy              =   -3260.87436133 Ry
     estimated scf accuracy    <       8.98492258 Ry

     total magnetization       =     0.03 Bohr mag/cell
     absolute magnetization    =     0.13 Bohr mag/cell

     iteration # 11     ecut=    36.75 Ry     beta= 0.05
     Davidson diagonalization with overlap
     ethr =  1.41E-03,  avg # of iterations =  2.9

     negative rho (up, down):  1.244E-02 1.241E-02
 
     Adding external electric field

     Computed dipole along edir(3) : 
        Dipole                0.5224 Ry au,          1.3278 Debye
        Dipole field          0.0010 Ry au, 
 
        Potential amp.       -0.0914 Ry
        Total length         46.3494 bohr
 
 
     Adding external electric field

     Computed dipole along edir(3) : 
        Dipole                0.5224 Ry au,          1.3278 Debye
        Dipole field          0.0010 Ry au, 
 
        Potential amp.       -0.0914 Ry
        Total length         46.3494 bohr
 

     total cpu time spent up to now is      296.6 secs

     total energy              =   -3260.54383797 Ry
     estimated scf accuracy    <      10.57866830 Ry

     total magnetization       =     0.01 Bohr mag/cell
     absolute magnetization    =     0.10 Bohr mag/cell

     iteration # 12     ecut=    36.75 Ry     beta= 0.05
     Davidson diagonalization with overlap
     ethr =  1.41E-03,  avg # of iterations =  1.1

     negative rho (up, down):  1.232E-02 1.227E-02
 
     Adding external electric field

     Computed dipole along edir(3) : 
        Dipole               -0.1297 Ry au,         -0.3297 Debye
        Dipole field         -0.0002 Ry au, 
 
        Potential amp.        0.0227 Ry
        Total length         46.3494 bohr
 
 
     Adding external electric field

     Computed dipole along edir(3) : 
        Dipole               -0.1297 Ry au,         -0.3297 Debye
        Dipole field         -0.0002 Ry au, 
 
        Potential amp.        0.0227 Ry
        Total length         46.3494 bohr
 

     total cpu time spent up to now is      317.2 secs

     total energy              =   -3260.22781636 Ry
     estimated scf accuracy    <       9.91730605 Ry

     total magnetization       =     0.08 Bohr mag/cell
     absolute magnetization    =     0.14 Bohr mag/cell

     iteration # 13     ecut=    36.75 Ry     beta= 0.05
     Davidson diagonalization with overlap
     ethr =  1.41E-03,  avg # of iterations =  2.5

     negative rho (up, down):  1.239E-02 1.232E-02
 
     Adding external electric field

     Computed dipole along edir(3) : 
        Dipole               -0.3495 Ry au,         -0.8884 Debye
        Dipole field         -0.0007 Ry au, 
 
        Potential amp.        0.0611 Ry
        Total length         46.3494 bohr
 
 
     Adding external electric field

     Computed dipole along edir(3) : 
        Dipole               -0.3495 Ry au,         -0.8884 Debye
        Dipole field         -0.0007 Ry au, 
 
        Potential amp.        0.0611 Ry
        Total length         46.3494 bohr
 

     total cpu time spent up to now is      337.0 secs

     total energy              =   -3260.40533613 Ry
     estimated scf accuracy    <       1.25280418 Ry

     total magnetization       =    -0.10 Bohr mag/cell
     absolute magnetization    =     0.16 Bohr mag/cell

     iteration # 14     ecut=    36.75 Ry     beta= 0.05
     Davidson diagonalization with overlap
     c_bands:  3 eigenvalues not converged
     c_bands:  1 eigenvalues not converged
     ethr =  3.28E-04,  avg # of iterations = 15.2

     negative rho (up, down):  1.263E-02 1.261E-02
 
     Adding external electric field

     Computed dipole along edir(3) : 
        Dipole                0.2645 Ry au,          0.6724 Debye
        Dipole field          0.0005 Ry au, 
 
        Potential amp.       -0.0463 Ry
        Total length         46.3494 bohr
 
 
     Adding external electric field

     Computed dipole along edir(3) : 
        Dipole                0.2645 Ry au,          0.6724 Debye
        Dipole field          0.0005 Ry au, 
 
        Potential amp.       -0.0463 Ry
        Total length         46.3494 bohr
 

     total cpu time spent up to now is      372.5 secs

     total energy              =   -3260.28796671 Ry
     estimated scf accuracy    <       1.18746828 Ry

     total magnetization       =    -0.15 Bohr mag/cell
     absolute magnetization    =     0.20 Bohr mag/cell

     iteration # 15     ecut=    36.75 Ry     beta= 0.05
     Davidson diagonalization with overlap
     ethr =  3.11E-04,  avg # of iterations =  5.0

     negative rho (up, down):  1.293E-02 1.298E-02
 
     Adding external electric field

     Computed dipole along edir(3) : 
        Dipole                0.5010 Ry au,          1.2734 Debye
        Dipole field          0.0009 Ry au, 
 
        Potential amp.       -0.0876 Ry
        Total length         46.3494 bohr
 
 
     Adding external electric field

     Computed dipole along edir(3) : 
        Dipole                0.5010 Ry au,          1.2734 Debye
        Dipole field          0.0009 Ry au, 
 
        Potential amp.       -0.0876 Ry
        Total length         46.3494 bohr
 

     total cpu time spent up to now is      396.8 secs

     total energy              =   -3260.26370895 Ry
     estimated scf accuracy    <       0.90790125 Ry

     total magnetization       =     0.00 Bohr mag/cell
     absolute magnetization    =     0.08 Bohr mag/cell

     iteration # 16     ecut=    36.75 Ry     beta= 0.05
     Davidson diagonalization with overlap
     c_bands:  1 eigenvalues not converged
     ethr =  2.38E-04,  avg # of iterations = 14.2

     negative rho (up, down):  1.287E-02 1.290E-02
 
     Adding external electric field

     Computed dipole along edir(3) : 
        Dipole                0.0318 Ry au,          0.0809 Debye
        Dipole field          0.0001 Ry au, 
 
        Potential amp.       -0.0056 Ry
        Total length         46.3494 bohr
 
 
     Adding external electric field

     Computed dipole along edir(3) : 
        Dipole                0.0318 Ry au,          0.0809 Debye
        Dipole field          0.0001 Ry au, 
 
        Potential amp.       -0.0056 Ry
        Total length         46.3494 bohr
 

     total cpu time spent up to now is      427.2 secs

     total energy              =   -3260.10736847 Ry
     estimated scf accuracy    <       5.20152234 Ry

     total magnetization       =     0.01 Bohr mag/cell
     absolute magnetization    =     0.09 Bohr mag/cell

     iteration # 17     ecut=    36.75 Ry     beta= 0.05
     Davidson diagonalization with overlap
     ethr =  2.38E-04,  avg # of iterations =  8.4

     negative rho (up, down):  1.222E-02 1.218E-02
 
     Adding external electric field

     Computed dipole along edir(3) : 
        Dipole               -0.1371 Ry au,         -0.3486 Debye
        Dipole field         -0.0003 Ry au, 
 
        Potential amp.        0.0240 Ry
        Total length         46.3494 bohr
 
 
     Adding external electric field

     Computed dipole along edir(3) : 
        Dipole               -0.1371 Ry au,         -0.3486 Debye
        Dipole field         -0.0003 Ry au, 
 
        Potential amp.        0.0240 Ry
        Total length         46.3494 bohr
 

     total cpu time spent up to now is      453.2 secs

     total energy              =   -3260.23273245 Ry
     estimated scf accuracy    <       1.17796663 Ry

     total magnetization       =    -0.39 Bohr mag/cell
     absolute magnetization    =     0.46 Bohr mag/cell

     iteration # 18     ecut=    36.75 Ry     beta= 0.05
     Davidson diagonalization with overlap
     ethr =  2.38E-04,  avg # of iterations =  3.5

     negative rho (up, down):  1.218E-02 1.214E-02
 
     Adding external electric field

     Computed dipole along edir(3) : 
        Dipole                0.0386 Ry au,          0.0980 Debye
        Dipole field          0.0001 Ry au, 
 
        Potential amp.       -0.0067 Ry
        Total length         46.3494 bohr
 
 
     Adding external electric field

     Computed dipole along edir(3) : 
        Dipole                0.0386 Ry au,          0.0980 Debye
        Dipole field          0.0001 Ry au, 
 
        Potential amp.       -0.0067 Ry
        Total length         46.3494 bohr
 

     total cpu time spent up to now is      473.0 secs

     total energy              =   -3260.27611066 Ry
     estimated scf accuracy    <       0.26302115 Ry

     total magnetization       =    -0.23 Bohr mag/cell
     absolute magnetization    =     0.27 Bohr mag/cell

     iteration # 19     ecut=    36.75 Ry     beta= 0.05
     Davidson diagonalization with overlap
     c_bands:  1 eigenvalues not converged
     c_bands:  1 eigenvalues not converged
     c_bands:  2 eigenvalues not converged
     c_bands:  1 eigenvalues not converged
     ethr =  6.89E-05,  avg # of iterations = 12.6

     negative rho (up, down):  1.192E-02 1.189E-02
 
     Adding external electric field

     Computed dipole along edir(3) : 
        Dipole                0.0935 Ry au,          0.2378 Debye
        Dipole field          0.0002 Ry au, 
 
        Potential amp.       -0.0164 Ry
        Total length         46.3494 bohr
 
 
     Adding external electric field

     Computed dipole along edir(3) : 
        Dipole                0.0935 Ry au,          0.2378 Debye
        Dipole field          0.0002 Ry au, 
 
        Potential amp.       -0.0164 Ry
        Total length         46.3494 bohr
 

     total cpu time spent up to now is      500.3 secs

     total energy              =   -3260.28529537 Ry
     estimated scf accuracy    <       0.21576475 Ry

     total magnetization       =    -0.04 Bohr mag/cell
     absolute magnetization    =     0.11 Bohr mag/cell

     iteration # 20     ecut=    36.75 Ry     beta= 0.05
     Davidson diagonalization with overlap
     ethr =  5.65E-05,  avg # of iterations =  3.5

     negative rho (up, down):  1.117E-02 1.110E-02
 
     Adding external electric field

     Computed dipole along edir(3) : 
        Dipole               -0.1569 Ry au,         -0.3989 Debye
        Dipole field         -0.0003 Ry au, 
 
        Potential amp.        0.0275 Ry
        Total length         46.3494 bohr
 
 
     Adding external electric field

     Computed dipole along edir(3) : 
        Dipole               -0.1569 Ry au,         -0.3989 Debye
        Dipole field         -0.0003 Ry au, 
 
        Potential amp.        0.0275 Ry
        Total length         46.3494 bohr
 

     total cpu time spent up to now is      523.3 secs

     total energy              =   -3260.28791516 Ry
     estimated scf accuracy    <       0.17673507 Ry

     total magnetization       =    -0.06 Bohr mag/cell
     absolute magnetization    =     0.13 Bohr mag/cell

     iteration # 21     ecut=    36.75 Ry     beta= 0.05
     Davidson diagonalization with overlap
     ethr =  4.63E-05,  avg # of iterations =  6.5

     negative rho (up, down):  1.122E-02 1.117E-02
 
     Adding external electric field

     Computed dipole along edir(3) : 
        Dipole               -0.0863 Ry au,         -0.2193 Debye
        Dipole field         -0.0002 Ry au, 
 
        Potential amp.        0.0151 Ry
        Total length         46.3494 bohr
 
 
     Adding external electric field

     Computed dipole along edir(3) : 
        Dipole               -0.0863 Ry au,         -0.2193 Debye
        Dipole field         -0.0002 Ry au, 
 
        Potential amp.        0.0151 Ry
        Total length         46.3494 bohr
 

     total cpu time spent up to now is      546.1 secs

     total energy              =   -3260.29922668 Ry
     estimated scf accuracy    <       0.09494140 Ry

     total magnetization       =    -0.49 Bohr mag/cell
     absolute magnetization    =     0.52 Bohr mag/cell

     iteration # 22     ecut=    36.75 Ry     beta= 0.05
     Davidson diagonalization with overlap
     ethr =  2.49E-05,  avg # of iterations =  7.8

     negative rho (up, down):  1.134E-02 1.130E-02
 
     Adding external electric field

     Computed dipole along edir(3) : 
        Dipole               -0.0034 Ry au,         -0.0087 Debye
        Dipole field         -0.0000 Ry au, 
 
        Potential amp.        0.0006 Ry
        Total length         46.3494 bohr
 
 
     Adding external electric field

     Computed dipole along edir(3) : 
        Dipole               -0.0034 Ry au,         -0.0087 Debye
        Dipole field         -0.0000 Ry au, 
 
        Potential amp.        0.0006 Ry
        Total length         46.3494 bohr
 

     total cpu time spent up to now is      568.1 secs

     total energy              =   -3260.29100521 Ry
     estimated scf accuracy    <       0.06322792 Ry

     total magnetization       =    -0.36 Bohr mag/cell
     absolute magnetization    =     0.41 Bohr mag/cell

     iteration # 23     ecut=    36.75 Ry     beta= 0.05
     Davidson diagonalization with overlap
     ethr =  1.66E-05,  avg # of iterations = 10.2

     negative rho (up, down):  1.131E-02 1.126E-02
 
     Adding external electric field

     Computed dipole along edir(3) : 
        Dipole               -0.0372 Ry au,         -0.0945 Debye
        Dipole field         -0.0001 Ry au, 
 
        Potential amp.        0.0065 Ry
        Total length         46.3494 bohr
 
 
     Adding external electric field

     Computed dipole along edir(3) : 
        Dipole               -0.0372 Ry au,         -0.0945 Debye
        Dipole field         -0.0001 Ry au, 
 
        Potential amp.        0.0065 Ry
        Total length         46.3494 bohr
 

     total cpu time spent up to now is      599.7 secs

     total energy              =   -3260.29402202 Ry
     estimated scf accuracy    <       0.03811714 Ry

     total magnetization       =    -0.27 Bohr mag/cell
     absolute magnetization    =     0.38 Bohr mag/cell

     iteration # 24     ecut=    36.75 Ry     beta= 0.05
     Davidson diagonalization with overlap
     c_bands:  1 eigenvalues not converged
     ethr =  9.98E-06,  avg # of iterations =  4.3

     negative rho (up, down):  1.132E-02 1.128E-02
 
     Adding external electric field

     Computed dipole along edir(3) : 
        Dipole               -0.0047 Ry au,         -0.0120 Debye
        Dipole field         -0.0000 Ry au, 
 
        Potential amp.        0.0008 Ry
        Total length         46.3494 bohr
 
 
     Adding external electric field

     Computed dipole along edir(3) : 
        Dipole               -0.0047 Ry au,         -0.0120 Debye
        Dipole field         -0.0000 Ry au, 
 
        Potential amp.        0.0008 Ry
        Total length         46.3494 bohr
 

     total cpu time spent up to now is      620.6 secs

     total energy              =   -3260.29761792 Ry
     estimated scf accuracy    <       0.01845821 Ry

     total magnetization       =    -0.33 Bohr mag/cell
     absolute magnetization    =     0.48 Bohr mag/cell

     iteration # 25     ecut=    36.75 Ry     beta= 0.05
     Davidson diagonalization with overlap
     c_bands:  2 eigenvalues not converged
     c_bands:  1 eigenvalues not converged
     c_bands:  1 eigenvalues not converged
     c_bands:  1 eigenvalues not converged
     ethr =  4.83E-06,  avg # of iterations = 11.2

     negative rho (up, down):  1.129E-02 1.125E-02
 
     Adding external electric field

     Computed dipole along edir(3) : 
        Dipole                0.0055 Ry au,          0.0139 Debye
        Dipole field          0.0000 Ry au, 
 
        Potential amp.       -0.0010 Ry
        Total length         46.3494 bohr
 
 
     Adding external electric field

     Computed dipole along edir(3) : 
        Dipole                0.0055 Ry au,          0.0139 Debye
        Dipole field          0.0000 Ry au, 
 
        Potential amp.       -0.0010 Ry
        Total length         46.3494 bohr
 

     total cpu time spent up to now is      648.8 secs

     total energy              =   -3260.29984074 Ry
     estimated scf accuracy    <       0.02387962 Ry

     total magnetization       =    -0.34 Bohr mag/cell
     absolute magnetization    =     0.62 Bohr mag/cell

     iteration # 26     ecut=    36.75 Ry     beta= 0.05
     Davidson diagonalization with overlap
     c_bands:  1 eigenvalues not converged
     ethr =  4.83E-06,  avg # of iterations =  2.7

     negative rho (up, down):  1.129E-02 1.125E-02
 
     Adding external electric field

     Computed dipole along edir(3) : 
        Dipole               -0.0476 Ry au,         -0.1210 Debye
        Dipole field         -0.0001 Ry au, 
 
        Potential amp.        0.0083 Ry
        Total length         46.3494 bohr
 
 
     Adding external electric field

     Computed dipole along edir(3) : 
        Dipole               -0.0476 Ry au,         -0.1210 Debye
        Dipole field         -0.0001 Ry au, 
 
        Potential amp.        0.0083 Ry
        Total length         46.3494 bohr
 

     total cpu time spent up to now is      667.2 secs

     total energy              =   -3260.30192204 Ry
     estimated scf accuracy    <       0.02528956 Ry

     total magnetization       =    -0.32 Bohr mag/cell
     absolute magnetization    =     0.61 Bohr mag/cell

     iteration # 27     ecut=    36.75 Ry     beta= 0.05
     Davidson diagonalization with overlap
     c_bands:  1 eigenvalues not converged
     c_bands:  3 eigenvalues not converged
     c_bands:  3 eigenvalues not converged
     c_bands:  1 eigenvalues not converged
     c_bands:  1 eigenvalues not converged
     c_bands:  3 eigenvalues not converged
     c_bands:  3 eigenvalues not converged
     c_bands:  1 eigenvalues not converged
     c_bands:  1 eigenvalues not converged
     ethr =  4.83E-06,  avg # of iterations = 13.1

     negative rho (up, down):  1.128E-02 1.125E-02
 
     Adding external electric field

     Computed dipole along edir(3) : 
        Dipole               -0.1261 Ry au,         -0.3204 Debye
        Dipole field         -0.0002 Ry au, 
 
        Potential amp.        0.0221 Ry
        Total length         46.3494 bohr
 
 
     Adding external electric field

     Computed dipole along edir(3) : 
        Dipole               -0.1261 Ry au,         -0.3204 Debye
        Dipole field         -0.0002 Ry au, 
 
        Potential amp.        0.0221 Ry
        Total length         46.3494 bohr
 

     total cpu time spent up to now is      694.4 secs

     total energy              =   -3260.30195184 Ry
     estimated scf accuracy    <       0.04078802 Ry

     total magnetization       =    -0.37 Bohr mag/cell
     absolute magnetization    =     0.63 Bohr mag/cell

     iteration # 28     ecut=    36.75 Ry     beta= 0.05
     Davidson diagonalization with overlap
     c_bands:  2 eigenvalues not converged
     c_bands:  3 eigenvalues not converged
     c_bands:  2 eigenvalues not converged
     c_bands:  1 eigenvalues not converged
     c_bands:  2 eigenvalues not converged
     c_bands:  1 eigenvalues not converged
     c_bands:  1 eigenvalues not converged
     ethr =  4.83E-06,  avg # of iterations = 11.6

     negative rho (up, down):  1.121E-02 1.117E-02
 
     Adding external electric field

     Computed dipole along edir(3) : 
        Dipole               -0.1538 Ry au,         -0.3909 Debye
        Dipole field         -0.0003 Ry au, 
 
        Potential amp.        0.0269 Ry
        Total length         46.3494 bohr
 
 
     Adding external electric field

     Computed dipole along edir(3) : 
        Dipole               -0.1538 Ry au,         -0.3909 Debye
        Dipole field         -0.0003 Ry au, 
 
        Potential amp.        0.0269 Ry
        Total length         46.3494 bohr
 

     total cpu time spent up to now is      722.1 secs

     total energy              =   -3260.29963894 Ry
     estimated scf accuracy    <       0.05071821 Ry

     total magnetization       =    -0.39 Bohr mag/cell
     absolute magnetization    =     0.55 Bohr mag/cell

     iteration # 29     ecut=    36.75 Ry     beta= 0.05
     Davidson diagonalization with overlap
     c_bands:  1 eigenvalues not converged
     c_bands:  1 eigenvalues not converged
     c_bands:  1 eigenvalues not converged
     c_bands:  1 eigenvalues not converged
     ethr =  4.83E-06,  avg # of iterations =  7.6

     negative rho (up, down):  1.119E-02 1.114E-02
 
     Adding external electric field

     Computed dipole along edir(3) : 
        Dipole               -0.1531 Ry au,         -0.3890 Debye
        Dipole field         -0.0003 Ry au, 
 
        Potential amp.        0.0268 Ry
        Total length         46.3494 bohr
 
 
     Adding external electric field

     Computed dipole along edir(3) : 
        Dipole               -0.1531 Ry au,         -0.3890 Debye
        Dipole field         -0.0003 Ry au, 
 
        Potential amp.        0.0268 Ry
        Total length         46.3494 bohr
 

     total cpu time spent up to now is      749.5 secs

     total energy              =   -3260.29947316 Ry
     estimated scf accuracy    <       0.04003007 Ry

     total magnetization       =    -0.45 Bohr mag/cell
     absolute magnetization    =     0.51 Bohr mag/cell

     iteration # 30     ecut=    36.75 Ry     beta= 0.05
     Davidson diagonalization with overlap
     ethr =  4.83E-06,  avg # of iterations =  2.1

     negative rho (up, down):  1.111E-02 1.105E-02
 
     Adding external electric field

     Computed dipole along edir(3) : 
        Dipole               -0.1838 Ry au,         -0.4672 Debye
        Dipole field         -0.0003 Ry au, 
 
        Potential amp.        0.0322 Ry
        Total length         46.3494 bohr
 
 
     Adding external electric field

     Computed dipole along edir(3) : 
        Dipole               -0.1838 Ry au,         -0.4672 Debye
        Dipole field         -0.0003 Ry au, 
 
        Potential amp.        0.0322 Ry
        Total length         46.3494 bohr
 

     total cpu time spent up to now is      766.8 secs

     total energy              =   -3260.29195676 Ry
     estimated scf accuracy    <       0.03669956 Ry

     total magnetization       =    -0.46 Bohr mag/cell
     absolute magnetization    =     0.51 Bohr mag/cell

     iteration # 31     ecut=    36.75 Ry     beta= 0.05
     Davidson diagonalization with overlap
     c_bands:  2 eigenvalues not converged
     c_bands:  1 eigenvalues not converged
     ethr =  4.83E-06,  avg # of iterations = 11.3

     negative rho (up, down):  1.113E-02 1.107E-02
 
     Adding external electric field

     Computed dipole along edir(3) : 
        Dipole               -0.1637 Ry au,         -0.4160 Debye
        Dipole field         -0.0003 Ry au, 
 
        Potential amp.        0.0286 Ry
        Total length         46.3494 bohr
 
 
     Adding external electric field

     Computed dipole along edir(3) : 
        Dipole               -0.1637 Ry au,         -0.4160 Debye
        Dipole field         -0.0003 Ry au, 
 
        Potential amp.        0.0286 Ry
        Total length         46.3494 bohr
 

     total cpu time spent up to now is      796.6 secs

     total energy              =   -3260.29581197 Ry
     estimated scf accuracy    <       0.00928509 Ry

     total magnetization       =    -0.51 Bohr mag/cell
     absolute magnetization    =     0.53 Bohr mag/cell

     iteration # 32     ecut=    36.75 Ry     beta= 0.05
     Davidson diagonalization with overlap
     c_bands:  1 eigenvalues not converged
     c_bands:  1 eigenvalues not converged
     c_bands:  1 eigenvalues not converged
     c_bands:  1 eigenvalues not converged
     ethr =  2.43E-06,  avg # of iterations =  9.4

     negative rho (up, down):  1.112E-02 1.107E-02
 
     Adding external electric field

     Computed dipole along edir(3) : 
        Dipole               -0.1215 Ry au,         -0.3087 Debye
        Dipole field         -0.0002 Ry au, 
 
        Potential amp.        0.0212 Ry
        Total length         46.3494 bohr
 
 
     Adding external electric field

     Computed dipole along edir(3) : 
        Dipole               -0.1215 Ry au,         -0.3087 Debye
        Dipole field         -0.0002 Ry au, 
 
        Potential amp.        0.0212 Ry
        Total length         46.3494 bohr
 

     total cpu time spent up to now is      819.1 secs

     total energy              =   -3260.29746692 Ry
     estimated scf accuracy    <       0.00778937 Ry

     total magnetization       =    -0.46 Bohr mag/cell
     absolute magnetization    =     0.62 Bohr mag/cell

     iteration # 33     ecut=    36.75 Ry     beta= 0.05
     Davidson diagonalization with overlap
     c_bands:  1 eigenvalues not converged
     c_bands:  1 eigenvalues not converged
     ethr =  2.04E-06,  avg # of iterations =  4.7

     negative rho (up, down):  1.112E-02 1.106E-02
 
     Adding external electric field

     Computed dipole along edir(3) : 
        Dipole               -0.1215 Ry au,         -0.3088 Debye
        Dipole field         -0.0002 Ry au, 
 
        Potential amp.        0.0213 Ry
        Total length         46.3494 bohr
 
 
     Adding external electric field

     Computed dipole along edir(3) : 
        Dipole               -0.1215 Ry au,         -0.3088 Debye
        Dipole field         -0.0002 Ry au, 
 
        Potential amp.        0.0213 Ry
        Total length         46.3494 bohr
 

     total cpu time spent up to now is      838.9 secs

     total energy              =   -3260.29860192 Ry
     estimated scf accuracy    <       0.00799780 Ry

     total magnetization       =    -0.35 Bohr mag/cell
     absolute magnetization    =     0.74 Bohr mag/cell

     iteration # 34     ecut=    36.75 Ry     beta= 0.05
     Davidson diagonalization with overlap
     ethr =  2.04E-06,  avg # of iterations =  3.4

     negative rho (up, down):  1.111E-02 1.106E-02
 
     Adding external electric field

     Computed dipole along edir(3) : 
        Dipole               -0.1179 Ry au,         -0.2998 Debye
        Dipole field         -0.0002 Ry au, 
 
        Potential amp.        0.0206 Ry
        Total length         46.3494 bohr
 
 
     Adding external electric field

     Computed dipole along edir(3) : 
        Dipole               -0.1179 Ry au,         -0.2998 Debye
        Dipole field         -0.0002 Ry au, 
 
        Potential amp.        0.0206 Ry
        Total length         46.3494 bohr
 

     total cpu time spent up to now is      857.7 secs

     total energy              =   -3260.29874091 Ry
     estimated scf accuracy    <       0.00817190 Ry

     total magnetization       =    -0.27 Bohr mag/cell
     absolute magnetization    =     0.81 Bohr mag/cell

     iteration # 35     ecut=    36.75 Ry     beta= 0.05
     Davidson diagonalization with overlap
     ethr =  2.04E-06,  avg # of iterations =  1.1

     negative rho (up, down):  1.111E-02 1.105E-02
 
     Adding external electric field

     Computed dipole along edir(3) : 
        Dipole               -0.1358 Ry au,         -0.3450 Debye
        Dipole field         -0.0003 Ry au, 
 
        Potential amp.        0.0237 Ry
        Total length         46.3494 bohr
 
 
     Adding external electric field

     Computed dipole along edir(3) : 
        Dipole               -0.1358 Ry au,         -0.3450 Debye
        Dipole field         -0.0003 Ry au, 
 
        Potential amp.        0.0237 Ry
        Total length         46.3494 bohr
 

     total cpu time spent up to now is      874.5 secs

     total energy              =   -3260.29847703 Ry
     estimated scf accuracy    <       0.00834726 Ry

     total magnetization       =    -0.27 Bohr mag/cell
     absolute magnetization    =     0.81 Bohr mag/cell

     iteration # 36     ecut=    36.75 Ry     beta= 0.05
     Davidson diagonalization with overlap
     ethr =  2.04E-06,  avg # of iterations =  2.1

     negative rho (up, down):  1.110E-02 1.103E-02
 
     Adding external electric field

     Computed dipole along edir(3) : 
        Dipole               -0.1862 Ry au,         -0.4733 Debye
        Dipole field         -0.0004 Ry au, 
 
        Potential amp.        0.0326 Ry
        Total length         46.3494 bohr
 
 
     Adding external electric field

     Computed dipole along edir(3) : 
        Dipole               -0.1862 Ry au,         -0.4733 Debye
        Dipole field         -0.0004 Ry au, 
 
        Potential amp.        0.0326 Ry
        Total length         46.3494 bohr
 

     total cpu time spent up to now is      892.3 secs

     total energy              =   -3260.29737535 Ry
     estimated scf accuracy    <       0.00787191 Ry

     total magnetization       =    -0.30 Bohr mag/cell
     absolute magnetization    =     0.79 Bohr mag/cell

     iteration # 37     ecut=    36.75 Ry     beta= 0.05
     Davidson diagonalization with overlap
     ethr =  2.04E-06,  avg # of iterations =  6.3

     negative rho (up, down):  1.109E-02 1.100E-02
 
     Adding external electric field

     Computed dipole along edir(3) : 
        Dipole               -0.2631 Ry au,         -0.6686 Debye
        Dipole field         -0.0005 Ry au, 
 
        Potential amp.        0.0460 Ry
        Total length         46.3494 bohr
 
 
     Adding external electric field

     Computed dipole along edir(3) : 
        Dipole               -0.2631 Ry au,         -0.6686 Debye
        Dipole field         -0.0005 Ry au, 
 
        Potential amp.        0.0460 Ry
        Total length         46.3494 bohr
 

     total cpu time spent up to now is      913.3 secs

     total energy              =   -3260.29760237 Ry
     estimated scf accuracy    <       0.00897089 Ry

     total magnetization       =    -0.71 Bohr mag/cell
     absolute magnetization    =     0.76 Bohr mag/cell

     iteration # 38     ecut=    36.75 Ry     beta= 0.05
     Davidson diagonalization with overlap
     c_bands:  1 eigenvalues not converged
     c_bands:  3 eigenvalues not converged
     c_bands:  2 eigenvalues not converged
     c_bands:  1 eigenvalues not converged
     c_bands:  1 eigenvalues not converged
     ethr =  2.04E-06,  avg # of iterations = 13.2

     negative rho (up, down):  1.110E-02 1.102E-02
 
     Adding external electric field

     Computed dipole along edir(3) : 
        Dipole               -0.2238 Ry au,         -0.5688 Debye
        Dipole field         -0.0004 Ry au, 
 
        Potential amp.        0.0392 Ry
        Total length         46.3494 bohr
 
 
     Adding external electric field

     Computed dipole along edir(3) : 
        Dipole               -0.2238 Ry au,         -0.5688 Debye
        Dipole field         -0.0004 Ry au, 
 
        Potential amp.        0.0392 Ry
        Total length         46.3494 bohr
 

     total cpu time spent up to now is      939.2 secs

     total energy              =   -3260.29806304 Ry
     estimated scf accuracy    <       0.07287837 Ry

     total magnetization       =    -1.21 Bohr mag/cell
     absolute magnetization    =     1.21 Bohr mag/cell

     iteration # 39     ecut=    36.75 Ry     beta= 0.05
     Davidson diagonalization with overlap
     c_bands:  1 eigenvalues not converged
     c_bands:  1 eigenvalues not converged
     ethr =  2.04E-06,  avg # of iterations =  4.8

     negative rho (up, down):  1.113E-02 1.106E-02
 
     Adding external electric field

     Computed dipole along edir(3) : 
        Dipole               -0.0562 Ry au,         -0.1429 Debye
        Dipole field         -0.0001 Ry au, 
 
        Potential amp.        0.0098 Ry
        Total length         46.3494 bohr
 
 
     Adding external electric field

     Computed dipole along edir(3) : 
        Dipole               -0.0562 Ry au,         -0.1429 Debye
        Dipole field         -0.0001 Ry au, 
 
        Potential amp.        0.0098 Ry
        Total length         46.3494 bohr
 

     total cpu time spent up to now is      961.4 secs

     total energy              =   -3260.29376949 Ry
     estimated scf accuracy    <       0.05278168 Ry

     total magnetization       =    -0.95 Bohr mag/cell
     absolute magnetization    =     0.95 Bohr mag/cell

     iteration # 40     ecut=    36.75 Ry     beta= 0.05
     Davidson diagonalization with overlap
     c_bands:  2 eigenvalues not converged
     c_bands:  2 eigenvalues not converged
     c_bands:  3 eigenvalues not converged
     c_bands:  1 eigenvalues not converged
     c_bands:  1 eigenvalues not converged
     c_bands:  3 eigenvalues not converged
     c_bands:  3 eigenvalues not converged
     c_bands:  1 eigenvalues not converged
     ethr =  2.04E-06,  avg # of iterations = 16.8

     negative rho (up, down):  1.114E-02 1.107E-02
 
     Adding external electric field

     Computed dipole along edir(3) : 
        Dipole               -0.0351 Ry au,         -0.0893 Debye
        Dipole field         -0.0001 Ry au, 
 
        Potential amp.        0.0061 Ry
        Total length         46.3494 bohr
 
 
     Adding external electric field

     Computed dipole along edir(3) : 
        Dipole               -0.0351 Ry au,         -0.0893 Debye
        Dipole field         -0.0001 Ry au, 
 
        Potential amp.        0.0061 Ry
        Total length         46.3494 bohr
 

     total cpu time spent up to now is      994.8 secs

     total energy              =   -3260.29853043 Ry
     estimated scf accuracy    <       0.01047121 Ry

     total magnetization       =    -0.39 Bohr mag/cell
     absolute magnetization    =     0.76 Bohr mag/cell

     iteration # 41     ecut=    36.75 Ry     beta= 0.05
     Davidson diagonalization with overlap
     c_bands:  1 eigenvalues not converged
     c_bands:  2 eigenvalues not converged
     c_bands:  2 eigenvalues not converged
     c_bands:  1 eigenvalues not converged
     c_bands:  3 eigenvalues not converged
     c_bands:  2 eigenvalues not converged
     ethr =  2.04E-06,  avg # of iterations =  8.9

     negative rho (up, down):  1.115E-02 1.107E-02
 
     Adding external electric field

     Computed dipole along edir(3) : 
        Dipole               -0.0234 Ry au,         -0.0595 Debye
        Dipole field         -0.0000 Ry au, 
 
        Potential amp.        0.0041 Ry
        Total length         46.3494 bohr
 
 
     Adding external electric field

     Computed dipole along edir(3) : 
        Dipole               -0.0234 Ry au,         -0.0595 Debye
        Dipole field         -0.0000 Ry au, 
 
        Potential amp.        0.0041 Ry
        Total length         46.3494 bohr
 

     total cpu time spent up to now is     1017.5 secs

     total energy              =   -3260.29902170 Ry
     estimated scf accuracy    <       0.01309848 Ry

     total magnetization       =    -0.61 Bohr mag/cell
     absolute magnetization    =     0.72 Bohr mag/cell

     iteration # 42     ecut=    36.75 Ry     beta= 0.05
     Davidson diagonalization with overlap
     ethr =  2.04E-06,  avg # of iterations =  2.3

     negative rho (up, down):  1.114E-02 1.107E-02
 
     Adding external electric field

     Computed dipole along edir(3) : 
        Dipole                0.0360 Ry au,          0.0914 Debye
        Dipole field          0.0001 Ry au, 
 
        Potential amp.       -0.0063 Ry
        Total length         46.3494 bohr
 
 
     Adding external electric field

     Computed dipole along edir(3) : 
        Dipole                0.0360 Ry au,          0.0914 Debye
        Dipole field          0.0001 Ry au, 
 
        Potential amp.       -0.0063 Ry
        Total length         46.3494 bohr
 

     total cpu time spent up to now is     1035.2 secs

     total energy              =   -3260.30109222 Ry
     estimated scf accuracy    <       0.01375339 Ry

     total magnetization       =    -0.58 Bohr mag/cell
     absolute magnetization    =     0.72 Bohr mag/cell

     iteration # 43     ecut=    36.75 Ry     beta= 0.05
     Davidson diagonalization with overlap
     c_bands:  1 eigenvalues not converged
     c_bands:  2 eigenvalues not converged
     c_bands:  2 eigenvalues not converged
     c_bands:  3 eigenvalues not converged
     c_bands:  1 eigenvalues not converged
     c_bands:  3 eigenvalues not converged
     c_bands:  2 eigenvalues not converged
     c_bands:  3 eigenvalues not converged
     ethr =  2.04E-06,  avg # of iterations = 12.8

     negative rho (up, down):  1.115E-02 1.109E-02
 
     Adding external electric field

     Computed dipole along edir(3) : 
        Dipole                0.0926 Ry au,          0.2353 Debye
        Dipole field          0.0002 Ry au, 
 
        Potential amp.       -0.0162 Ry
        Total length         46.3494 bohr
 
 
     Adding external electric field

     Computed dipole along edir(3) : 
        Dipole                0.0926 Ry au,          0.2353 Debye
        Dipole field          0.0002 Ry au, 
 
        Potential amp.       -0.0162 Ry
        Total length         46.3494 bohr
 

     total cpu time spent up to now is     1060.5 secs

     total energy              =   -3260.30318416 Ry
     estimated scf accuracy    <       0.01892662 Ry

     total magnetization       =    -0.26 Bohr mag/cell
     absolute magnetization    =     0.85 Bohr mag/cell

     iteration # 44     ecut=    36.75 Ry     beta= 0.05
     Davidson diagonalization with overlap
     c_bands:  1 eigenvalues not converged
     c_bands:  2 eigenvalues not converged
     c_bands:  1 eigenvalues not converged
     c_bands:  1 eigenvalues not converged
     c_bands:  1 eigenvalues not converged
     c_bands:  1 eigenvalues not converged
     ethr =  2.04E-06,  avg # of iterations = 13.1

     negative rho (up, down):  1.116E-02 1.109E-02
 
     Adding external electric field

     Computed dipole along edir(3) : 
        Dipole                0.0247 Ry au,          0.0627 Debye
        Dipole field          0.0000 Ry au, 
 
        Potential amp.       -0.0043 Ry
        Total length         46.3494 bohr
 
 
     Adding external electric field

     Computed dipole along edir(3) : 
        Dipole                0.0247 Ry au,          0.0627 Debye
        Dipole field          0.0000 Ry au, 
 
        Potential amp.       -0.0043 Ry
        Total length         46.3494 bohr
 

     total cpu time spent up to now is     1087.7 secs

     total energy              =   -3260.30114239 Ry
     estimated scf accuracy    <       0.02657830 Ry

     total magnetization       =    -0.23 Bohr mag/cell
     absolute magnetization    =     0.87 Bohr mag/cell

     iteration # 45     ecut=    36.75 Ry     beta= 0.05
     Davidson diagonalization with overlap
     ethr =  2.04E-06,  avg # of iterations =  7.1

     negative rho (up, down):  1.114E-02 1.107E-02
 
     Adding external electric field

     Computed dipole along edir(3) : 
        Dipole                0.0559 Ry au,          0.1421 Debye
        Dipole field          0.0001 Ry au, 
 
        Potential amp.       -0.0098 Ry
        Total length         46.3494 bohr
 
 
     Adding external electric field

     Computed dipole along edir(3) : 
        Dipole                0.0559 Ry au,          0.1421 Debye
        Dipole field          0.0001 Ry au, 
 
        Potential amp.       -0.0098 Ry
        Total length         46.3494 bohr
 

     total cpu time spent up to now is     1110.6 secs

     total energy              =   -3260.30262246 Ry
     estimated scf accuracy    <       0.02109205 Ry

     total magnetization       =    -0.27 Bohr mag/cell
     absolute magnetization    =     0.84 Bohr mag/cell

     iteration # 46     ecut=    36.75 Ry     beta= 0.05
     Davidson diagonalization with overlap
     ethr =  2.04E-06,  avg # of iterations =  2.7

     negative rho (up, down):  1.116E-02 1.109E-02
 
     Adding external electric field

     Computed dipole along edir(3) : 
        Dipole                0.0720 Ry au,          0.1830 Debye
        Dipole field          0.0001 Ry au, 
 
        Potential amp.       -0.0126 Ry
        Total length         46.3494 bohr
 
 
     Adding external electric field

     Computed dipole along edir(3) : 
        Dipole                0.0720 Ry au,          0.1830 Debye
        Dipole field          0.0001 Ry au, 
 
        Potential amp.       -0.0126 Ry
        Total length         46.3494 bohr
 

     total cpu time spent up to now is     1134.5 secs

     total energy              =   -3260.30210532 Ry
     estimated scf accuracy    <       0.02311058 Ry

     total magnetization       =    -0.23 Bohr mag/cell
     absolute magnetization    =     0.88 Bohr mag/cell

     iteration # 47     ecut=    36.75 Ry     beta= 0.05
     Davidson diagonalization with overlap
     ethr =  2.04E-06,  avg # of iterations =  1.4

     negative rho (up, down):  1.115E-02 1.107E-02
 
     Adding external electric field

     Computed dipole along edir(3) : 
        Dipole                0.0199 Ry au,          0.0507 Debye
        Dipole field          0.0000 Ry au, 
 
        Potential amp.       -0.0035 Ry
        Total length         46.3494 bohr
 
 
     Adding external electric field

     Computed dipole along edir(3) : 
        Dipole                0.0199 Ry au,          0.0507 Debye
        Dipole field          0.0000 Ry au, 
 
        Potential amp.       -0.0035 Ry
        Total length         46.3494 bohr
 

     total cpu time spent up to now is     1151.9 secs

     total energy              =   -3260.30089413 Ry
     estimated scf accuracy    <       0.02563509 Ry

     total magnetization       =    -0.26 Bohr mag/cell
     absolute magnetization    =     0.83 Bohr mag/cell

     iteration # 48     ecut=    36.75 Ry     beta= 0.05
     Davidson diagonalization with overlap
     ethr =  2.04E-06,  avg # of iterations =  2.1

     negative rho (up, down):  1.111E-02 1.102E-02
 
     Adding external electric field

     Computed dipole along edir(3) : 
        Dipole               -0.2012 Ry au,         -0.5114 Debye
        Dipole field         -0.0004 Ry au, 
 
        Potential amp.        0.0352 Ry
        Total length         46.3494 bohr
 
 
     Adding external electric field

     Computed dipole along edir(3) : 
        Dipole               -0.2012 Ry au,         -0.5114 Debye
        Dipole field         -0.0004 Ry au, 
 
        Potential amp.        0.0352 Ry
        Total length         46.3494 bohr
 

     total cpu time spent up to now is     1170.6 secs

     total energy              =   -3260.29776202 Ry
     estimated scf accuracy    <       0.02136245 Ry

     total magnetization       =    -0.35 Bohr mag/cell
     absolute magnetization    =     0.79 Bohr mag/cell

     iteration # 49     ecut=    36.75 Ry     beta= 0.05
     Davidson diagonalization with overlap
     c_bands:  1 eigenvalues not converged
     c_bands:  2 eigenvalues not converged
     c_bands:  2 eigenvalues not converged
     c_bands:  3 eigenvalues not converged
     c_bands:  3 eigenvalues not converged
     c_bands:  1 eigenvalues not converged
     c_bands:  1 eigenvalues not converged
     c_bands:  1 eigenvalues not converged
     c_bands:  2 eigenvalues not converged
     c_bands:  2 eigenvalues not converged
     c_bands:  3 eigenvalues not converged
     c_bands:  3 eigenvalues not converged
     c_bands:  1 eigenvalues not converged
     ethr =  2.04E-06,  avg # of iterations = 17.6

     negative rho (up, down):  1.114E-02 1.106E-02
 
     Adding external electric field

     Computed dipole along edir(3) : 
        Dipole               -0.0234 Ry au,         -0.0594 Debye
        Dipole field         -0.0000 Ry au, 
 
        Potential amp.        0.0041 Ry
        Total length         46.3494 bohr
 
 
     Adding external electric field

     Computed dipole along edir(3) : 
        Dipole               -0.0234 Ry au,         -0.0594 Debye
        Dipole field         -0.0000 Ry au, 
 
        Potential amp.        0.0041 Ry
        Total length         46.3494 bohr
 

     total cpu time spent up to now is     1233.8 secs

     total energy              =   -3260.29860665 Ry
     estimated scf accuracy    <       0.00980225 Ry

     total magnetization       =    -0.52 Bohr mag/cell
     absolute magnetization    =     0.79 Bohr mag/cell

     iteration # 50     ecut=    36.75 Ry     beta= 0.05
     Davidson diagonalization with overlap
     c_bands:  1 eigenvalues not converged
     c_bands:  2 eigenvalues not converged
     c_bands:  2 eigenvalues not converged
     c_bands:  3 eigenvalues not converged
     c_bands:  3 eigenvalues not converged
     c_bands:  1 eigenvalues not converged
     c_bands:  1 eigenvalues not converged
     c_bands:  1 eigenvalues not converged
     c_bands:  2 eigenvalues not converged
     c_bands:  2 eigenvalues not converged
     c_bands:  4 eigenvalues not converged
     c_bands:  4 eigenvalues not converged
     c_bands:  1 eigenvalues not converged
     ethr =  2.04E-06,  avg # of iterations = 17.1

     negative rho (up, down):  1.112E-02 1.104E-02
 
     Adding external electric field

     Computed dipole along edir(3) : 
        Dipole               -0.1005 Ry au,         -0.2555 Debye
        Dipole field         -0.0002 Ry au, 
 
        Potential amp.        0.0176 Ry
        Total length         46.3494 bohr
 
 
     Adding external electric field

     Computed dipole along edir(3) : 
        Dipole               -0.1005 Ry au,         -0.2555 Debye
        Dipole field         -0.0002 Ry au, 
 
        Potential amp.        0.0176 Ry
        Total length         46.3494 bohr
 

     total cpu time spent up to now is     1303.9 secs

     total energy              =   -3260.30040227 Ry
     estimated scf accuracy    <       0.01425180 Ry

     total magnetization       =    -0.31 Bohr mag/cell
     absolute magnetization    =     0.83 Bohr mag/cell

     iteration # 51     ecut=    36.75 Ry     beta= 0.05
     Davidson diagonalization with overlap
     c_bands:  1 eigenvalues not converged
     c_bands:  1 eigenvalues not converged
     c_bands:  1 eigenvalues not converged
     c_bands:  2 eigenvalues not converged
     c_bands:  2 eigenvalues not converged
     c_bands:  1 eigenvalues not converged
     c_bands:  1 eigenvalues not converged
     c_bands:  1 eigenvalues not converged
     c_bands:  2 eigenvalues not converged
     c_bands:  1 eigenvalues not converged
     ethr =  2.04E-06,  avg # of iterations = 14.2

     negative rho (up, down):  1.113E-02 1.105E-02
 
     Adding external electric field

     Computed dipole along edir(3) : 
        Dipole               -0.0969 Ry au,         -0.2463 Debye
        Dipole field         -0.0002 Ry au, 
 
        Potential amp.        0.0170 Ry
        Total length         46.3494 bohr
 
 
     Adding external electric field

     Computed dipole along edir(3) : 
        Dipole               -0.0969 Ry au,         -0.2463 Debye
        Dipole field         -0.0002 Ry au, 
 
        Potential amp.        0.0170 Ry
        Total length         46.3494 bohr
 

     total cpu time spent up to now is     1332.4 secs

     total energy              =   -3260.30069757 Ry
     estimated scf accuracy    <       0.01149332 Ry

     total magnetization       =    -0.33 Bohr mag/cell
     absolute magnetization    =     0.82 Bohr mag/cell

     iteration # 52     ecut=    36.75 Ry     beta= 0.05
     Davidson diagonalization with overlap
     c_bands:  1 eigenvalues not converged
     c_bands:  1 eigenvalues not converged
     c_bands:  1 eigenvalues not converged
     c_bands:  1 eigenvalues not converged
     ethr =  2.04E-06,  avg # of iterations =  6.8

     negative rho (up, down):  1.113E-02 1.105E-02
 
     Adding external electric field

     Computed dipole along edir(3) : 
        Dipole               -0.0739 Ry au,         -0.1879 Debye
        Dipole field         -0.0001 Ry au, 
 
        Potential amp.        0.0129 Ry
        Total length         46.3494 bohr
 
 
     Adding external electric field

     Computed dipole along edir(3) : 
        Dipole               -0.0739 Ry au,         -0.1879 Debye
        Dipole field         -0.0001 Ry au, 
 
        Potential amp.        0.0129 Ry
        Total length         46.3494 bohr
 

     total cpu time spent up to now is     1352.2 secs

     total energy              =   -3260.30109265 Ry
     estimated scf accuracy    <       0.01196361 Ry

     total magnetization       =    -0.37 Bohr mag/cell
     absolute magnetization    =     0.81 Bohr mag/cell

     iteration # 53     ecut=    36.75 Ry     beta= 0.05
     Davidson diagonalization with overlap
     ethr =  2.04E-06,  avg # of iterations =  2.1

     negative rho (up, down):  1.117E-02 1.108E-02
 
     Adding external electric field

     Computed dipole along edir(3) : 
        Dipole               -0.0135 Ry au,         -0.0344 Debye
        Dipole field         -0.0000 Ry au, 
 
        Potential amp.        0.0024 Ry
        Total length         46.3494 bohr
 
 
     Adding external electric field

     Computed dipole along edir(3) : 
        Dipole               -0.0135 Ry au,         -0.0344 Debye
        Dipole field         -0.0000 Ry au, 
 
        Potential amp.        0.0024 Ry
        Total length         46.3494 bohr
 

     total cpu time spent up to now is     1369.8 secs

     total energy              =   -3260.30133114 Ry
     estimated scf accuracy    <       0.01340825 Ry

     total magnetization       =    -0.37 Bohr mag/cell
     absolute magnetization    =     0.81 Bohr mag/cell

     iteration # 54     ecut=    36.75 Ry     beta= 0.05
     Davidson diagonalization with overlap
     c_bands:  1 eigenvalues not converged
     c_bands:  1 eigenvalues not converged
     c_bands:  3 eigenvalues not converged
     c_bands:  3 eigenvalues not converged
     c_bands:  1 eigenvalues not converged
     c_bands:  3 eigenvalues not converged
     c_bands:  3 eigenvalues not converged
     ethr =  2.04E-06,  avg # of iterations = 11.2

     negative rho (up, down):  1.116E-02 1.107E-02
 
     Adding external electric field

     Computed dipole along edir(3) : 
        Dipole               -0.0308 Ry au,         -0.0783 Debye
        Dipole field         -0.0001 Ry au, 
 
        Potential amp.        0.0054 Ry
        Total length         46.3494 bohr
 
 
     Adding external electric field

     Computed dipole along edir(3) : 
        Dipole               -0.0308 Ry au,         -0.0783 Debye
        Dipole field         -0.0001 Ry au, 
 
        Potential amp.        0.0054 Ry
        Total length         46.3494 bohr
 

     total cpu time spent up to now is     1393.8 secs

     total energy              =   -3260.30144428 Ry
     estimated scf accuracy    <       0.01646087 Ry

     total magnetization       =    -0.34 Bohr mag/cell
     absolute magnetization    =     0.81 Bohr mag/cell

     iteration # 55     ecut=    36.75 Ry     beta= 0.05
     Davidson diagonalization with overlap
     ethr =  2.04E-06,  avg # of iterations =  1.4

     negative rho (up, down):  1.114E-02 1.105E-02
 
     Adding external electric field

     Computed dipole along edir(3) : 
        Dipole               -0.0523 Ry au,         -0.1330 Debye
        Dipole field         -0.0001 Ry au, 
 
        Potential amp.        0.0092 Ry
        Total length         46.3494 bohr
 
 
     Adding external electric field

     Computed dipole along edir(3) : 
        Dipole               -0.0523 Ry au,         -0.1330 Debye
        Dipole field         -0.0001 Ry au, 
 
        Potential amp.        0.0092 Ry
        Total length         46.3494 bohr
 

     total cpu time spent up to now is     1411.3 secs

     total energy              =   -3260.30147666 Ry
     estimated scf accuracy    <       0.01736930 Ry

     total magnetization       =    -0.34 Bohr mag/cell
     absolute magnetization    =     0.81 Bohr mag/cell

     iteration # 56     ecut=    36.75 Ry     beta= 0.05
     Davidson diagonalization with overlap
     c_bands:  1 eigenvalues not converged
     ethr =  2.04E-06,  avg # of iterations =  8.7

     negative rho (up, down):  1.116E-02 1.107E-02
 
     Adding external electric field

     Computed dipole along edir(3) : 
        Dipole               -0.0278 Ry au,         -0.0707 Debye
        Dipole field         -0.0001 Ry au, 
 
        Potential amp.        0.0049 Ry
        Total length         46.3494 bohr
 
 
     Adding external electric field

     Computed dipole along edir(3) : 
        Dipole               -0.0278 Ry au,         -0.0707 Debye
        Dipole field         -0.0001 Ry au, 
 
        Potential amp.        0.0049 Ry
        Total length         46.3494 bohr
 

     total cpu time spent up to now is     1435.1 secs

     total energy              =   -3260.30161406 Ry
     estimated scf accuracy    <       0.01273093 Ry

     total magnetization       =    -0.25 Bohr mag/cell
     absolute magnetization    =     0.88 Bohr mag/cell

     iteration # 57     ecut=    36.75 Ry     beta= 0.05
     Davidson diagonalization with overlap
     ethr =  2.04E-06,  avg # of iterations =  1.1

     negative rho (up, down):  1.119E-02 1.108E-02
 
     Adding external electric field

     Computed dipole along edir(3) : 
        Dipole               -0.0437 Ry au,         -0.1112 Debye
        Dipole field         -0.0001 Ry au, 
 
        Potential amp.        0.0077 Ry
        Total length         46.3494 bohr
 
 
     Adding external electric field

     Computed dipole along edir(3) : 
        Dipole               -0.0437 Ry au,         -0.1112 Debye
        Dipole field         -0.0001 Ry au, 
 
        Potential amp.        0.0077 Ry
        Total length         46.3494 bohr
 

     total cpu time spent up to now is     1456.7 secs

     total energy              =   -3260.29893553 Ry
     estimated scf accuracy    <       0.01394598 Ry

     total magnetization       =    -0.30 Bohr mag/cell
     absolute magnetization    =     0.85 Bohr mag/cell

     iteration # 58     ecut=    36.75 Ry     beta= 0.05
     Davidson diagonalization with overlap
     ethr =  2.04E-06,  avg # of iterations =  4.9

     negative rho (up, down):  1.118E-02 1.107E-02
 
     Adding external electric field

     Computed dipole along edir(3) : 
        Dipole               -0.1389 Ry au,         -0.3532 Debye
        Dipole field         -0.0003 Ry au, 
 
        Potential amp.        0.0243 Ry
        Total length         46.3494 bohr
 
 
     Adding external electric field

     Computed dipole along edir(3) : 
        Dipole               -0.1389 Ry au,         -0.3532 Debye
        Dipole field         -0.0003 Ry au, 
 
        Potential amp.        0.0243 Ry
        Total length         46.3494 bohr
 

     total cpu time spent up to now is     1477.3 secs

     total energy              =   -3260.30534914 Ry
     estimated scf accuracy    <       0.02248610 Ry

     total magnetization       =    -1.07 Bohr mag/cell
     absolute magnetization    =     1.08 Bohr mag/cell

     iteration # 59     ecut=    36.75 Ry     beta= 0.05
     Davidson diagonalization with overlap
     c_bands:  2 eigenvalues not converged
     c_bands:  2 eigenvalues not converged
     c_bands:  2 eigenvalues not converged
     c_bands:  2 eigenvalues not converged
     c_bands:  1 eigenvalues not converged
     c_bands:  2 eigenvalues not converged
     c_bands:  2 eigenvalues not converged
     c_bands:  2 eigenvalues not converged
     c_bands:  2 eigenvalues not converged
     c_bands:  1 eigenvalues not converged
     ethr =  2.04E-06,  avg # of iterations = 15.5

     negative rho (up, down):  1.118E-02 1.107E-02
 
     Adding external electric field

     Computed dipole along edir(3) : 
[...]
    -3.7220  -3.6581  -3.6272  -3.5761  -3.5337  -3.4180  -3.3672  -3.3136
    -3.2641  -3.2246  -3.1713  -3.1127  -3.0056  -2.9889  -2.9660  -2.9302
    -2.8997  -2.7392  -2.7209  -2.6425  -2.6323  -2.6103  -2.5517  -2.5187
    -2.4607  -2.4482  -2.4304  -2.3935  -2.3722  -2.3249  -2.3183  -2.1975
    -2.1120  -2.0662  -2.0421  -1.9214  -1.8985  -1.8387  -1.7623  -1.7367
    -1.7038  -1.7010  -1.5912  -1.5777  -1.5017  -1.3897  -1.3775  -1.2721
    -1.2068  -1.2010  -1.1638  -1.1397  -1.1010  -1.0840  -0.9881  -0.9564
    -0.8352  -0.7993  -0.7495  -0.7209  -0.6930  -0.6426  -0.6057  -0.5397
    -0.5081  -0.4912  -0.4741  -0.4152  -0.3652  -0.3167  -0.3066  -0.1555
    -0.1457  -0.0500  -0.0256   0.0128   0.0696   0.1118   0.1310   0.1358
     0.2935   0.3182   0.6016   0.6688   0.7183   1.5610   1.7226   2.3313
     2.3324   2.6463   2.7073   2.7455   2.9760   3.0746   3.1404   3.1901
     3.2104

          k = 0.0380 0.0419 0.0000 ( 25075 PWs)   bands (ev):

   -57.1308 -57.0868 -56.3831 -56.3586 -56.3250 -56.2998 -56.2572 -56.1867
   -56.1810 -56.1617 -55.9475 -55.8942 -55.8920 -55.8680 -55.2815 -55.2474
   -33.4512 -33.3347 -33.2837 -33.2552 -33.1852 -33.1839 -32.7686 -32.7476
   -32.6077 -32.5954 -32.5718 -32.5682 -32.5657 -32.5567 -32.5230 -32.4954
   -32.4854 -32.4829 -32.4674 -32.4651 -32.4550 -32.4481 -32.4184 -32.3669
   -32.3393 -32.3274 -32.3251 -32.3242 -32.3113 -32.3007 -32.2879 -32.1877
   -32.1738 -32.1538 -32.1468 -32.1244 -32.0772 -32.0574 -32.0554 -32.0495
   -31.9898 -31.9216 -31.7332 -31.5511 -31.5473 -31.4351 -31.3832 -31.2866
   -17.1381 -16.8652 -16.7095 -16.6250 -16.5285 -16.4244 -16.4018 -16.3638
   -16.2998 -16.2648 -16.2183 -16.1834 -16.1366 -16.1182 -16.0423 -15.9736
   -15.9692 -15.8827 -15.7833 -15.7713 -15.7652 -15.7354 -15.6841 -15.5896
   -15.5473 -15.4870 -15.4507 -15.3147 -15.0818 -14.4714 -14.3949  -6.1682
    -4.3965  -4.1476  -3.9084  -3.8777  -3.7929  -3.7226  -3.7021  -3.6721
    -3.6172  -3.5612  -3.5540  -3.4747  -3.4719  -3.4245  -3.3877  -3.3610
    -3.2696  -3.2416  -3.1604  -3.1462  -3.1121  -3.0591  -3.0273  -2.9943
    -2.9295  -2.9208  -2.9022  -2.8422  -2.8343  -2.7223  -2.6886  -2.6590
    -2.5814  -2.5518  -2.4939  -2.2723  -2.2475  -2.2384  -2.2021  -2.0735
    -2.0380  -1.9928  -1.9248  -1.8471  -1.8357  -1.7864  -1.7257  -1.6982
    -1.6493  -1.5508  -1.5330  -1.5037  -1.4698  -1.4245  -1.4041  -1.3663
    -1.2939  -1.2472  -1.2248  -1.1896  -1.1424  -1.1172  -1.0848  -1.0596
    -1.0029  -0.9185  -0.8922  -0.8636  -0.8354  -0.7642  -0.7285  -0.6700
    -0.5798  -0.5562  -0.5105  -0.4579  -0.3946  -0.3173  -0.2874  -0.2589
    -0.2175  -0.1107  -0.0916  -0.0433   0.0491   0.0845   0.1304   0.2822
     0.3717   0.4516   0.5766   0.6198   0.6859   1.5203   1.8009   2.4395
     2.5775   2.6623   2.7067   2.7899   3.0244   3.0756   3.1153   3.1356
     3.1832

          k = 0.0380-0.0839 0.0000 ( 25070 PWs)   bands (ev):

   -57.1274 -57.0903 -56.3735 -56.3683 -56.3128 -56.3120 -56.2552 -56.1830
   -56.1771 -56.1712 -55.9446 -55.8971 -55.8800 -55.8800 -55.2762 -55.2527
   -33.3348 -33.3326 -33.3046 -33.2857 -33.2359 -33.2035 -32.6367 -32.6347
   -32.6201 -32.6159 -32.5826 -32.5749 -32.5586 -32.5299 -32.5238 -32.5225
   -32.4929 -32.4857 -32.4564 -32.4543 -32.4509 -32.4488 -32.4209 -32.4061
   -32.4043 -32.3394 -32.3372 -32.3329 -32.3289 -32.3277 -32.2241 -32.1804
   -32.1637 -32.1637 -32.1234 -32.1182 -32.0927 -32.0571 -32.0567 -32.0567
   -32.0198 -32.0198 -31.6749 -31.5659 -31.5388 -31.4659 -31.3697 -31.3248
   -16.8704 -16.8622 -16.5756 -16.5622 -16.4799 -16.4679 -16.4194 -16.3937
   -16.2935 -16.2383 -16.1872 -16.1779 -16.0933 -16.0707 -16.0234 -16.0154
   -16.0054 -15.9564 -15.8401 -15.8345 -15.7689 -15.7671 -15.6998 -15.6951
   -15.5605 -15.4863 -15.4852 -15.3567 -15.1574 -14.4586 -14.4558  -6.1602
    -4.0069  -4.0055  -3.7654  -3.7456  -3.6482  -3.6370  -3.6003  -3.5829
    -3.5377  -3.4959  -3.4203  -3.4085  -3.3839  -3.3676  -3.3617  -3.3502
    -3.2996  -3.2757  -3.2508  -3.2370  -3.1113  -3.0873  -3.0571  -3.0194
    -2.9606  -2.9187  -2.8713  -2.8416  -2.7615  -2.7221  -2.6758  -2.6701
    -2.6143  -2.5853  -2.5258  -2.4870  -2.3308  -2.3246  -2.1850  -2.1576
    -2.0932  -2.0895  -2.0274  -2.0138  -1.9208  -1.9148  -1.7573  -1.6805
    -1.6022  -1.5782  -1.5223  -1.5187  -1.4822  -1.4736  -1.3585  -1.2955
    -1.2776  -1.2691  -1.2404  -1.2309  -1.1791  -1.1720  -1.1049  -1.0665
    -0.9540  -0.9359  -0.9074  -0.9036  -0.8633  -0.8384  -0.7829  -0.7537
    -0.7189  -0.6960  -0.6681  -0.6315  -0.4246  -0.4129  -0.3199  -0.2929
    -0.1743  -0.1667  -0.0969  -0.0180   0.0410   0.1578   0.2626   0.3555
     0.4266   0.4960   0.4967   0.6050   0.6078   1.4998   1.8885   2.6428
     2.6535   2.6854   2.8257   2.8289   2.9878   3.0097   3.0923   3.1247
     3.2324

          k = 0.0380-0.0419 0.0000 ( 25077 PWs)   bands (ev):

   -57.1308 -57.0868 -56.3831 -56.3586 -56.3250 -56.2998 -56.2572 -56.1867
   -56.1810 -56.1617 -55.9475 -55.8942 -55.8920 -55.8680 -55.2815 -55.2474
   -33.4512 -33.3347 -33.2837 -33.2552 -33.1852 -33.1839 -32.7686 -32.7476
   -32.6077 -32.5954 -32.5718 -32.5682 -32.5657 -32.5566 -32.5230 -32.4954
   -32.4854 -32.4829 -32.4673 -32.4652 -32.4550 -32.4481 -32.4184 -32.3669
   -32.3393 -32.3274 -32.3251 -32.3242 -32.3113 -32.3007 -32.2879 -32.1877
   -32.1738 -32.1538 -32.1468 -32.1244 -32.0771 -32.0574 -32.0554 -32.0495
   -31.9898 -31.9216 -31.7332 -31.5511 -31.5474 -31.4351 -31.3832 -31.2866
   -17.1379 -16.8652 -16.7102 -16.6250 -16.5285 -16.4236 -16.4018 -16.3639
   -16.2999 -16.2648 -16.2184 -16.1834 -16.1369 -16.1181 -16.0424 -15.9733
   -15.9694 -15.8825 -15.7826 -15.7704 -15.7659 -15.7357 -15.6843 -15.5896
   -15.5475 -15.4870 -15.4508 -15.3147 -15.0817 -14.4714 -14.3949  -6.1683
    -4.3958  -4.1476  -3.9080  -3.8787  -3.7924  -3.7226  -3.7021  -3.6721
    -3.6172  -3.5614  -3.5541  -3.4744  -3.4719  -3.4246  -3.3880  -3.3619
    -3.2701  -3.2411  -3.1600  -3.1458  -3.1129  -3.0599  -3.0273  -2.9944
    -2.9297  -2.9211  -2.9021  -2.8490  -2.8290  -2.7230  -2.6857  -2.6609
    -2.5814  -2.5520  -2.4931  -2.2694  -2.2509  -2.2408  -2.1923  -2.0742
    -2.0364  -1.9928  -1.9241  -1.8472  -1.8358  -1.7860  -1.7252  -1.6998
    -1.6501  -1.5502  -1.5315  -1.5055  -1.4687  -1.4222  -1.4068  -1.3645
    -1.2942  -1.2463  -1.2274  -1.1940  -1.1445  -1.1203  -1.0854  -1.0581
    -1.0059  -0.9163  -0.8902  -0.8596  -0.8243  -0.7644  -0.7455  -0.6698
    -0.5721  -0.5557  -0.5116  -0.4590  -0.3922  -0.3183  -0.2883  -0.2594
    -0.2182  -0.1106  -0.0910  -0.0493   0.0467   0.0850   0.1315   0.2828
     0.3719   0.4516   0.5764   0.6208   0.6866   1.5198   1.7992   2.4398
     2.5779   2.6625   2.7116   2.7891   3.0247   3.0759   3.1150   3.1359
     3.1840

          k =-0.0760-0.0000 0.0000 ( 25092 PWs)   bands (ev):

   -57.1338 -57.0838 -56.3879 -56.3537 -56.3301 -56.2946 -56.2591 -56.1916
   -56.1791 -56.1567 -55.9501 -55.8970 -55.8915 -55.8630 -55.2855 -55.2434
   -33.5051 -33.3365 -33.2819 -33.2652 -33.1718 -33.1291 -32.8247 -32.8033
   -32.6496 -32.6203 -32.6165 -32.5780 -32.5636 -32.5597 -32.5180 -32.4738
   -32.4699 -32.4689 -32.4635 -32.4625 -32.4260 -32.4258 -32.4147 -32.3794
   -32.3567 -32.3549 -32.3190 -32.3154 -32.2879 -32.2543 -32.2403 -32.2311
   -32.1807 -32.1615 -32.1484 -32.1272 -32.0664 -32.0616 -32.0543 -32.0030
   -31.9773 -31.8645 -31.7748 -31.5561 -31.5417 -31.4243 -31.3823 -31.2549
   -17.0618 -16.9495 -16.8089 -16.7591 -16.5747 -16.4545 -16.3843 -16.3480
   -16.3092 -16.2524 -16.2324 -16.1910 -16.1773 -16.1328 -16.0404 -16.0351
   -15.9647 -15.9358 -15.9243 -15.7723 -15.6409 -15.6346 -15.6195 -15.5583
   -15.4800 -15.4689 -15.4208 -15.2853 -15.0165 -14.4623 -14.3538  -6.1585
    -4.3003  -4.2061  -4.1848  -3.9635  -3.8670  -3.8313  -3.7791  -3.6663
    -3.6423  -3.5790  -3.5748  -3.5377  -3.4999  -3.4518  -3.4346  -3.2235
    -3.2135  -3.1236  -3.1011  -3.0250  -2.9908  -2.9661  -2.8853  -2.8732
    -2.8124  -2.7258  -2.7217  -2.6114  -2.6018  -2.5731  -2.5319  -2.5281
    -2.5233  -2.4620  -2.4541  -2.4459  -2.4251  -2.3916  -2.2905  -2.2447
    -2.1618  -2.1167  -2.0567  -2.0369  -1.9287  -1.9127  -1.8452  -1.8208
    -1.7127  -1.6341  -1.6293  -1.6078  -1.5836  -1.5362  -1.4664  -1.3554
    -1.3319  -1.2248  -1.2058  -1.1716  -1.1636  -1.0721  -1.0646  -0.9825
    -0.9694  -0.8096  -0.7673  -0.7471  -0.7208  -0.6958  -0.6627  -0.6106
    -0.6081  -0.5822  -0.4470  -0.3852  -0.3173  -0.2716  -0.2661  -0.2100
    -0.1499  -0.0888  -0.0790  -0.0490   0.0251   0.0470   0.1588   0.2570
     0.2683   0.2905   0.4581   0.4694   0.6031   1.5042   1.7223   2.3376
     2.4539   2.4820   2.6493   2.6596   2.9141   3.1293   3.1443   3.1491
     3.1683

          k =-0.0760 0.0419 0.0000 ( 25078 PWs)   bands (ev):

   -57.1308 -57.0868 -56.3831 -56.3586 -56.3249 -56.2998 -56.2572 -56.1867
   -56.1810 -56.1617 -55.9475 -55.8942 -55.8920 -55.8680 -55.2815 -55.2474
   -33.4520 -33.3347 -33.2837 -33.2536 -33.1854 -33.1836 -32.7687 -32.7502
   -32.6077 -32.5962 -32.5719 -32.5680 -32.5675 -32.5472 -32.5230 -32.4953
   -32.4846 -32.4817 -32.4672 -32.4609 -32.4568 -32.4536 -32.4170 -32.3669
   -32.3474 -32.3248 -32.3234 -32.3190 -32.3115 -32.3005 -32.2879 -32.1875
   -32.1758 -32.1530 -32.1518 -32.1248 -32.0780 -32.0572 -32.0553 -32.0495
   -31.9898 -31.9216 -31.7332 -31.5517 -31.5477 -31.4350 -31.3832 -31.2866
   -16.9448 -16.8467 -16.7677 -16.6925 -16.4805 -16.4069 -16.3803 -16.3523
   -16.2748 -16.2622 -16.2170 -16.1892 -16.1607 -16.1254 -16.0707 -16.0007
   -15.9570 -15.9192 -15.8970 -15.8202 -15.7424 -15.7184 -15.6870 -15.6718
   -15.5358 -15.4701 -15.4402 -15.3140 -15.0805 -14.4695 -14.3952  -6.1592
    -4.1352  -3.9778  -3.9005  -3.8134  -3.7073  -3.6307  -3.5899  -3.5663
    -3.5265  -3.4950  -3.4597  -3.3951  -3.3789  -3.3692  -3.3393  -3.3177
    -3.2690  -3.2433  -3.2022  -3.1399  -3.1217  -3.0426  -2.9542  -2.9111
    -2.8702  -2.8377  -2.8085  -2.7747  -2.7106  -2.6771  -2.6498  -2.6194
    -2.5710  -2.5007  -2.4564  -2.3970  -2.3277  -2.2824  -2.2339  -2.1807
    -2.1287  -2.0150  -1.9406  -1.8976  -1.8764  -1.8736  -1.8326  -1.7804
    -1.7282  -1.7100  -1.6496  -1.5523  -1.5298  -1.5081  -1.4712  -1.4515
    -1.4113  -1.4055  -1.3849  -1.3625  -1.3220  -1.2032  -1.1841  -1.1649
    -1.0833  -1.0308  -0.9992  -0.9540  -0.8777  -0.8176  -0.8094  -0.7803
    -0.7071  -0.6393  -0.5222  -0.3459  -0.3269  -0.3127  -0.2308  -0.1640
    -0.1198  -0.0992  -0.0118   0.0049   0.0207   0.1467   0.1926   0.2772
     0.3870   0.4153   0.5159   0.5288   0.6411   1.5188   1.8101   2.4460
     2.5528   2.6403   2.7112   2.7267   3.0901   3.1059   3.1651   3.1706
     3.1939

          k =-0.0760-0.0839 0.0000 ( 25128 PWs)   bands (ev):

   -57.1274 -57.0903 -56.3735 -56.3682 -56.3128 -56.3120 -56.2552 -56.1830
   -56.1772 -56.1712 -55.9446 -55.8971 -55.8800 -55.8800 -55.2762 -55.2527
   -33.3354 -33.3326 -33.3052 -33.2857 -33.2350 -33.2025 -32.6368 -32.6348
   -32.6224 -32.6182 -32.5827 -32.5749 -32.5586 -32.5299 -32.5189 -32.5176
   -32.4935 -32.4858 -32.4558 -32.4543 -32.4496 -32.4487 -32.4214 -32.4052
   -32.4035 -32.3394 -32.3371 -32.3363 -32.3323 -32.3278 -32.2213 -32.1783
   -32.1643 -32.1643 -32.1247 -32.1197 -32.0956 -32.0571 -32.0567 -32.0566
   -32.0198 -32.0198 -31.6750 -31.5663 -31.5392 -31.4659 -31.3697 -31.3248
   -16.7155 -16.7150 -16.6663 -16.6469 -16.5186 -16.5044 -16.3685 -16.3544
   -16.3182 -16.2362 -16.1569 -16.1540 -16.0268 -15.9944 -15.9897 -15.9750
   -15.9604 -15.9286 -15.9272 -15.9132 -15.8756 -15.8720 -15.7974 -15.7958
   -15.5478 -15.4797 -15.4709 -15.3530 -15.1553 -14.4585 -14.4556  -6.1590
    -3.8081  -3.7996  -3.6753  -3.6613  -3.5767  -3.5023  -3.4718  -3.4716
    -3.4708  -3.4677  -3.3719  -3.3657  -3.2008  -3.1999  -3.1515  -3.1443
    -3.1194  -3.0891  -3.0754  -3.0290  -2.9986  -2.9975  -2.9827  -2.9697
    -2.9478  -2.9475  -2.9334  -2.9115  -2.8652  -2.8460  -2.6758  -2.6588
    -2.6556  -2.6261  -2.6086  -2.5346  -2.3945  -2.3798  -2.3042  -2.2998
    -2.2604  -2.1440  -2.0088  -1.9954  -1.9774  -1.9586  -1.8255  -1.8027
    -1.7823  -1.7533  -1.7022  -1.6891  -1.6695  -1.5831  -1.4702  -1.4519
    -1.4204  -1.4053  -1.3642  -1.3577  -1.3419  -1.3224  -1.2286  -1.2089
    -1.1685  -1.1564  -1.1379  -1.0629  -1.0237  -0.9681  -0.8158  -0.8079
    -0.7427  -0.7221  -0.7043  -0.6524  -0.2855  -0.2121  -0.1705  -0.1115
    -0.0405  -0.0132   0.0252   0.0669   0.1193   0.1970   0.2053   0.3255
     0.4136   0.5224   0.5304   0.5683   0.5780   1.5378   1.9071   2.6838
     2.7137   2.7448   2.7718   2.8055   3.0881   3.0923   3.1205   3.1586
     3.2260

     the Fermi energy is     2.0196 ev

!    total energy              =   -3260.32966323 Ry
     estimated scf accuracy    <       0.00000003 Ry
     smearing contrib. (-TS)   =      -0.00000004 Ry
     internal energy E=F+TS    =   -3260.32966320 Ry

     The total energy is F=E-TS. E is the sum of the following terms:
     one-electron contribution =  -24801.29124687 Ry
     hartree contribution      =   12486.16490599 Ry
     xc contribution           =    -544.76394346 Ry
     ewald contribution        =    9918.04954550 Ry
     electric field correction =       0.00003882 Ry
     one-center paw contrib.   =    -318.48896317 Ry

     total magnetization       =     0.00 Bohr mag/cell
     absolute magnetization    =     1.33 Bohr mag/cell

     convergence has been achieved in  22 iterations

     negative rho (up, down):  1.096E-02 1.099E-02

     Forces acting on atoms (cartesian axes, Ry/au):

     atom    1 type  1   force =     0.00008307   -0.00004624    0.13737752
     atom    2 type  1   force =    -0.00004103    0.00033156   -0.16732055
     atom    3 type  2   force =     0.00022505   -0.00011739   -0.07514911
     atom    4 type  2   force =     0.00002794    0.00004212    0.02952886
     atom    5 type  2   force =    -0.02840784   -0.00018723   -0.00411474
     atom    6 type  2   force =     0.02858840    0.00038253   -0.00313336
     atom    7 type  1   force =     0.00142907    0.00040048    0.02157552
     atom    8 type  1   force =    -0.00107461   -0.01750448    0.05989499
     atom    9 type  2   force =    -0.00003109   -0.00008938   -0.00053604
     atom   10 type  2   force =     0.00070587   -0.00009225   -0.03887268
     atom   11 type  2   force =    -0.00072405    0.00020688   -0.00017319
     atom   12 type  2   force =    -0.00008942    0.00005897   -0.00013428
     atom   13 type  1   force =     0.00010945   -0.00035506   -0.00071263
     atom   14 type  1   force =     0.00004083    0.00013492    0.00024593
     atom   15 type  2   force =    -0.00005674   -0.00013259    0.00024204
     atom   16 type  2   force =    -0.00038597   -0.00026054   -0.00062373
     atom   17 type  2   force =     0.00012386    0.00000398   -0.00035292
     atom   18 type  2   force =    -0.00027817   -0.00004573   -0.00012268
     atom   19 type  1   force =     0.00034053   -0.00032291    0.00038884
     atom   20 type  1   force =    -0.00030583   -0.00034861   -0.00067113
     atom   21 type  2   force =     0.00006957    0.00008201    0.10016282
     atom   22 type  2   force =     0.00005898   -0.00034556    0.00001584
     atom   23 type  2   force =    -0.07498400    0.00141796   -0.03411996
     atom   24 type  2   force =     0.07495115    0.00184660   -0.03416663
     atom   25 type  1   force =     0.00007449   -0.00011634    0.14679311
     atom   26 type  1   force =    -0.00004568   -0.00044375   -0.16728952
     atom   27 type  2   force =     0.00027291   -0.00015431   -0.07316310
     atom   28 type  2   force =     0.00003611   -0.00001401    0.02929021
     atom   29 type  2   force =    -0.02833445   -0.00048066   -0.00403142
     atom   30 type  2   force =     0.02852217   -0.00009181   -0.00305393
     atom   31 type  1   force =     0.00142028   -0.00038344    0.02143735
     atom   32 type  1   force =    -0.00107788    0.01731797    0.05977278
     atom   33 type  2   force =    -0.00006701    0.00005861   -0.00043102
     atom   34 type  2   force =     0.00023844    0.00033607   -0.03018895
     atom   35 type  2   force =    -0.00074495    0.00010081   -0.00020103
     atom   36 type  2   force =    -0.00017547   -0.00000978   -0.00019089
     atom   37 type  1   force =     0.00004194    0.00025994   -0.00009257
     atom   38 type  1   force =     0.00003977    0.00010525    0.00017032
     atom   39 type  2   force =    -0.00007607    0.00019347    0.00064297
     atom   40 type  2   force =    -0.00016407    0.00000733   -0.00043967
     atom   41 type  2   force =     0.00024854    0.00018943   -0.00021484
     atom   42 type  2   force =    -0.00038070    0.00022551   -0.00000254
     atom   43 type  1   force =    -0.00005612    0.00007692    0.00033678
     atom   44 type  1   force =    -0.00026664   -0.00021255   -0.00019159
     atom   45 type  2   force =     0.00007034    0.00008533    0.10023735
     atom   46 type  3   force =     0.00007588    0.00087872   -0.00013229
     atom   47 type  2   force =    -0.07498639   -0.00171458   -0.03411989
     atom   48 type  2   force =     0.07495954   -0.00127419   -0.03416635

     Total force =     0.413268     Total SCF correction =     0.000435
  @ DRIVER MODE: Message from server: STATUS
  @ DRIVER MODE: Message from server: GETFORCE
  @ DRIVER MODE: Returning v,forces,stress,ensemble 

     Writing output data file ./calc.save/
  @ DRIVER MODE: Message from server: EXIT
  @ DRIVE MODE: Exiting  
 
     init_run     :     14.37s CPU     15.09s WALL (       1 calls)
     electrons    :  26323.98s CPU  26999.92s WALL (      26 calls)
     update_pot   :     59.86s CPU     64.30s WALL (      25 calls)
     forces       :    194.97s CPU    210.64s WALL (      26 calls)

     Called by init_run:
     wfcinit      :      8.39s CPU      8.90s WALL (       1 calls)
     potinit      :      4.26s CPU      4.41s WALL (       1 calls)
     hinit0       :      0.94s CPU      0.95s WALL (       1 calls)

     Called by electrons:
     c_bands      :  21896.69s CPU  22323.87s WALL (     799 calls)
     sum_band     :   3186.17s CPU   3347.41s WALL (     799 calls)
     v_of_rho     :    632.55s CPU    656.53s WALL (     825 calls)
     newd         :    213.02s CPU    255.85s WALL (     825 calls)
     PAW_pot      :    322.43s CPU    328.35s WALL (     850 calls)
     mix_rho      :     94.89s CPU    101.77s WALL (     799 calls)
     vdW_kernel   :      3.03s CPU      3.04s WALL (       1 calls)

     Called by c_bands:
     init_us_2    :    149.23s CPU    150.76s WALL (   33000 calls)
     cegterg      :  21481.25s CPU  21901.67s WALL (   16155 calls)

     Called by *egterg:
     cdiaghg      :   4882.54s CPU   5060.60s WALL (  112203 calls)
     h_psi        :  10246.14s CPU  10430.45s WALL (  112898 calls)
     s_psi        :   1159.18s CPU   1164.95s WALL (  112898 calls)
     g_psi        :     33.75s CPU     34.08s WALL (   96723 calls)

     Called by h_psi:
     h_psi:calbec :   1245.15s CPU   1253.84s WALL (  112898 calls)
     vloc_psi     :   7771.23s CPU   7940.34s WALL (  112898 calls)
     add_vuspsi   :   1169.18s CPU   1175.24s WALL (  112898 calls)

     General routines
     calbec       :   1838.76s CPU   1862.96s WALL (  131458 calls)
     fft          :    473.80s CPU    486.26s WALL (   75452 calls)
     ffts         :      5.35s CPU      5.52s WALL (    3248 calls)
     fftw         :   9608.28s CPU   9897.18s WALL (20359780 calls)
     interpolate  :     14.37s CPU     15.00s WALL (    1650 calls)
     davcio       :      0.00s CPU      0.21s WALL (      20 calls)
 
     Parallel routines
 
     PWSCF        :      7h24m CPU      7h36m WALL

 
   This run was terminated on:   2: 7:21  13Feb2022            

=------------------------------------------------------------------------------=
   JOB DONE.
=------------------------------------------------------------------------------=
