
     Program PWSCF v.6.7GPU starts on 16Feb2022 at 10:59: 6 

     This program is part of the open-source Quantum ESPRESSO suite
     for quantum simulation of materials; please cite
         "P. Giannozzi et al., J. Phys.:Condens. Matter 21 395502 (2009);
         "P. Giannozzi et al., J. Phys.:Condens. Matter 29 465901 (2017);
         "P. Giannozzi et al., J. Chem. Phys. 152 154105 (2020);
          URL http://www.quantum-espresso.org", 
     in publications or presentations arising from this work. More details at
     http://www.quantum-espresso.org/quote

     Parallel version (MPI), running on    16 processors

     MPI processes distributed on     1 nodes
     R & G space division:  proc/nbgrp/npool/nimage =      16
     Reading input from /storage/coda1/p-amedford6/0/bchen380/C22/O2_C/qe_3984395.sched-torque.pace.gatech.edu/pw.inp
Warning: card &CELL ignored
Warning: card   CELL_DYNAMICS='IPI', ignored
Warning: card / ignored

     Current dimensions of program PWSCF are:
     Max number of different atomic species (ntypx) = 10
     Max number of k-points (npk) =  40000
     Max angular momentum in pseudopotentials (lmaxx) =  3
     Message from routine cell_base_init:
     DEPRECATED: use true lattice parameter, not A to a.u. conversion factor
     file O.UPF: wavefunction(s)  2P renormalized
     file C.UPF: wavefunction(s)  2S 2P renormalized

     **************************************************************************
     Initializing libbeef V0.1.2 with the BEEF-vdW functional.
     Citation: Wellendorff et al., PRB 85, 235149 (2012).
     **************************************************************************


     IMPORTANT: XC functional enforced from input :
     Exchange-correlation= BEEF-VDW
                           (   1   4  43  14   2   0   0)
     Any further DFT definition will be discarded
     Please, verify this is what you really want


     Subspace diagonalization in iterative solution of the eigenvalue problem:
     one sub-group per band group will be used
     scalapack distributed-memory algorithm (size of sub-group:  4*  4 procs)

  @ DRIVER MODE: Connecting to 
 qe_1064200_3984395.sched-torque.pace.gatech.edu5mo4bwtw_scratch
  using UNIX socket
  @ DRIVER MODE: Message from server: STATUS
  @ DRIVER MODE: Message from server: INIT
  @ DRIVER MODE: Receiving replica           0          -1
  @ DRIVER MODE: Receiving encoded integer          25
  @ DRIVER MODE:  SCF:  T  FORCE:  T  STRESS:  F  VC:  F  ENSEMBLE:  F
  @ DRIVER MODE:  SCF:  T  FORCE:  T  STRESS:  F  VC:  F  ENSEMBLE:  F
 
     Parallelization info
     --------------------
     sticks:   dense  smooth     PW     G-vecs:    dense   smooth      PW
     Min         256     102     28                49498    12526    1868
     Max         257     103     29                49510    12535    1881
     Sum        4097    1637    459               792059   200495   30031
 
     Using Slab Decomposition
 


     bravais-lattice index     =            0
     lattice parameter (alat)  =       1.8897  a.u.
     unit-cell volume          =    6658.9804 (a.u.)^3
     number of atoms/cell      =           50
     number of atomic types    =            3
     number of electrons       =       394.00
     number of Kohn-Sham states=          207
     kinetic-energy cutoff     =      36.7493  Ry
     charge density cutoff     =     367.4932  Ry
     scf convergence threshold =      7.3E-08
     mixing beta               =       0.0500
     number of iterations used =            8  plain     mixing
     Exchange-correlation= BEEF-VDW
                           (   1   4  43  14   2   0   0)

     celldm(1)=   1.889726  celldm(2)=   0.000000  celldm(3)=   0.000000
     celldm(4)=   0.000000  celldm(5)=   0.000000  celldm(6)=   0.000000

     crystal axes: (cart. coord. in units of alat)
               a(1) = (   6.579727   0.000000   0.000000 )  
               a(2) = (  -0.000775   5.961596   0.000000 )  
               a(3) = (   0.000000   0.000000  25.155947 )  

     reciprocal axes: (cart. coord. in units 2 pi/alat)
               b(1) = (  0.151982  0.000020  0.000000 )  
               b(2) = (  0.000000  0.167740  0.000000 )  
               b(3) = (  0.000000  0.000000  0.039752 )  


     PseudoPot. # 1 for Ti read from file:
     /storage/coda1/p-amedford6/0/shared/rich_project_chbe-medford/medford-share/data/pseudos_module/espresso/esp_pseudos_old/Ti.UPF
     MD5 check sum: 88a00a6731bd790ddea75d31a80cb452
     Pseudo is Ultrasoft + core correction, Zval = 12.0
     Generated by new atomic code, or converted to UPF format
     Using radial grid of  851 points,  6 beta functions with: 
                l(1) =   0
                l(2) =   0
                l(3) =   1
                l(4) =   1
                l(5) =   2
                l(6) =   2
     Q(r) pseudized with  6 coefficients,  rinner =    1.000   1.000   1.000
                                                       1.000   1.000

     PseudoPot. # 2 for O  read from file:
     /storage/coda1/p-amedford6/0/shared/rich_project_chbe-medford/medford-share/data/pseudos_module/espresso/esp_pseudos_old/O.UPF
     MD5 check sum: 0234752ac141de4415c5fc33072bef88
     Pseudo is Projector augmented-wave + core cor, Zval =  6.0
     Generated using "atomic" code by A. Dal Corso  v.5.0.99 svn rev. 10869
     Shape of augmentation charge: BESSEL
     Using radial grid of 1095 points,  4 beta functions with: 
                l(1) =   0
                l(2) =   0
                l(3) =   1
                l(4) =   1
     Q(r) pseudized with 0 coefficients 


     PseudoPot. # 3 for C  read from file:
     /storage/coda1/p-amedford6/0/shared/rich_project_chbe-medford/medford-share/data/pseudos_module/espresso/esp_pseudos_old/C.UPF
     MD5 check sum: 5d2aebdfa2cae82b50a7e79e9516da0f
     Pseudo is Projector augmented-wave + core cor, Zval =  4.0
     Generated using "atomic" code by A. Dal Corso  v.5.1
     Shape of augmentation charge: PSQ
     Using radial grid of 1073 points,  4 beta functions with: 
                l(1) =   0
                l(2) =   0
                l(3) =   1
                l(4) =   1
     Q(r) pseudized with 0 coefficients 


     atomic species   valence    mass     pseudopotential
        Ti1           12.00    47.86700     Ti( 1.00)
        O1             6.00    15.99900     O ( 1.00)
        C1             4.00    12.01100     C ( 1.00)

     Starting magnetic structure 
     atomic species   magnetization
        Ti1          0.000
        O1           0.000
        C1           0.000

     No symmetry found



   Cartesian axes

     site n.     atom                  positions (alat units)
         1           Ti1 tau(   1) = (   0.0004258   2.9801865   6.0000000  )
         2           Ti1 tau(   2) = (   3.2906075   1.4906267   6.0002472  )
         3           O1  tau(   3) = (   0.0006271   0.0005054   7.9858123  )
         4           O1  tau(   4) = (   3.2906025   0.0005020   7.3038282  )
         5           O1  tau(   5) = (   4.5942328   1.4918067   9.2879030  )
         6           O1  tau(   6) = (   1.9868534   1.4903216   9.2879459  )
         7           Ti1 tau(   7) = (   3.2905683   2.9818392   9.1597947  )
         8           Ti1 tau(   8) = (   0.0009689   1.5052867   9.3302970  )
         9           O1  tau(   9) = (   3.2895355   0.0032066  11.3746090  )
        10           O1  tau(  10) = (   0.0007044   0.0001637  10.5878211  )
        11           O1  tau(  11) = (   1.2929265   1.4845788  12.6646637  )
        12           O1  tau(  12) = (   5.2874070   1.4867494  12.6584620  )
        13           Ti1 tau(  13) = (   6.5784067   2.9755188  12.8194869  )
        14           Ti1 tau(  14) = (   3.2892799   1.4939290  12.5060033  )
        15           O1  tau(  15) = (   6.5642033   5.9537293  14.7037698  )
        16           O1  tau(  16) = (   3.2919363   5.9505667  13.9836626  )
        17           O1  tau(  17) = (   4.5309332   1.4942454  16.1096435  )
        18           O1  tau(  18) = (   2.0337697   1.4960349  16.1129832  )
        19           Ti1 tau(  19) = (   3.2906310   2.9759294  15.7448506  )
        20           Ti1 tau(  20) = (   0.0250023   1.4086776  16.0050410  )
        21           O1  tau(  21) = (   3.2904802   0.0005063   4.7018136  )
        22           O1  tau(  22) = (  -0.0000158   5.9457188  17.2369263  )
        23           O1  tau(  23) = (   1.3043587   1.4918075   6.0039043  )
        24           O1  tau(  24) = (   5.2767064   1.4903225   6.0039473  )
        25           Ti1 tau(  25) = (   0.0000382   5.9609847   6.0000000  )
        26           Ti1 tau(  26) = (   3.2902200   4.4714249   6.0002472  )
        27           O1  tau(  27) = (   0.0002396   2.9813036   7.9858123  )
        28           O1  tau(  28) = (   3.2902150   2.9813002   7.3038282  )
        29           O1  tau(  29) = (   4.5938453   4.4726049   9.2879030  )
        30           O1  tau(  30) = (   1.9864658   4.4711199   9.2879459  )
        31           Ti1 tau(  31) = (   3.2909982   0.0016570   9.1583503  )
        32           Ti1 tau(  32) = (   0.0005865   4.4518293   9.3323505  )
        33           O1  tau(  33) = (   3.2890264   2.9772467  11.3652708  )
        34           O1  tau(  34) = (   0.0003571   2.9798178  10.5649370  )
        35           O1  tau(  35) = (   1.2897344   4.4680403  12.6592612  )
        36           O1  tau(  36) = (   5.2899965   4.4660360  12.6525382  )
        37           Ti1 tau(  37) = (   6.5774733   5.9566811  12.5535902  )
        38           Ti1 tau(  38) = (   3.2889102   4.4707137  12.4997948  )
        39           O1  tau(  39) = (   6.5768087   2.9565850  14.7427850  )
        40           O1  tau(  40) = (   3.2900695   2.9864406  13.9480390  )
        41           O1  tau(  41) = (   4.5320542   4.4464368  16.1296913  )
        42           O1  tau(  42) = (   2.0282512   4.4431761  16.1324800  )
        43           Ti1 tau(  43) = (   3.3131630   5.9480948  15.7851759  )
        44           Ti1 tau(  44) = (   0.0307700   4.5956047  16.0591435  )
        45           O1  tau(  45) = (   3.2900926   2.9813045   4.7018136  )
        46           C1  tau(  46) = (   6.5161528   2.9100774  17.6753604  )
        47           O1  tau(  47) = (   1.3039711   4.4726057   6.0039043  )
        48           O1  tau(  48) = (   5.2763189   4.4711207   6.0039473  )
        49           O1  tau(  49) = (   6.3949639   3.1657575  18.8538198  )
        50           O1  tau(  50) = (   6.2131409   2.4122203  20.0654639  )

     number of k points=    10  Fermi-Dirac smearing, width (Ry)=  0.0007
                       cart. coord. in units 2pi/alat
        k(    1) = (   0.0000000   0.0000000   0.0000000), wk =   0.0625000
        k(    2) = (   0.0000000   0.0419351   0.0000000), wk =   0.1250000
        k(    3) = (   0.0000000  -0.0838702   0.0000000), wk =   0.0625000
        k(    4) = (   0.0379955   0.0000049   0.0000000), wk =   0.1250000
        k(    5) = (   0.0379955   0.0419400   0.0000000), wk =   0.1250000
        k(    6) = (   0.0379955  -0.0838652   0.0000000), wk =   0.1250000
        k(    7) = (   0.0379955  -0.0419301   0.0000000), wk =   0.1250000
        k(    8) = (  -0.0759910  -0.0000099   0.0000000), wk =   0.0625000
        k(    9) = (  -0.0759910   0.0419252   0.0000000), wk =   0.1250000
        k(   10) = (  -0.0759910  -0.0838800   0.0000000), wk =   0.0625000

     Dense  grid:   792059 G-vectors     FFT dimensions: (  75,  72, 300)

     Smooth grid:   200495 G-vectors     FFT dimensions: (  48,  45, 192)

     Estimated max dynamical RAM per process >     385.95 MB

     Estimated total dynamical RAM >       6.03 GB

     Check: negative core charge=   -0.000008
     Generating pointlists ...
     new r_m :   0.7392 (alat units)  1.3968 (a.u.) for type    1
     new r_m :   0.4999 (alat units)  0.9447 (a.u.) for type    2
     new r_m :   0.4999 (alat units)  0.9447 (a.u.) for type    3

     Initial potential from superposition of free atoms

     starting charge  377.99920, renormalised to  394.00000

     negative rho (up, down):  1.169E-02 1.169E-02


     %%%%%%%%%%%%%%%%%%%%%%%%%%%%%%%%%%%%%%%%%%%%%%%%%%%%%%%%%%%%%%%%%%%%%%%%
     %                                                                      %
     % You are using vdW-DF, which was implemented by the Thonhauser group. %
     % Please cite the following two papers that made this development      %
     % possible and the two reviews that describe the various versions:     %
     %                                                                      %
     %   T. Thonhauser et al., PRL 115, 136402 (2015).                      %
     %   T. Thonhauser et al., PRB 76, 125112 (2007).                       %
     %   K. Berland et al., Rep. Prog. Phys. 78, 066501 (2015).             %
     %   D.C. Langreth et al., J. Phys.: Condens. Matter 21, 084203 (2009). %
     %                                                                      %
     %                                                                      %
     % If you are calculating the stress with vdW-DF, please also cite:     %
     %                                                                      %
     %   R. Sabatini et al., J. Phys.: Condens. Matter 24, 424209 (2012).   %
     %                                                                      %
     %%%%%%%%%%%%%%%%%%%%%%%%%%%%%%%%%%%%%%%%%%%%%%%%%%%%%%%%%%%%%%%%%%%%%%%%


 
     Adding external electric field

     Computed dipole along edir(3) : 
        Dipole               -8.3255 Ry au,        -21.1613 Debye
        Dipole field         -0.0157 Ry au, 
 
        Potential amp.        1.4564 Ry
        Total length         46.3494 bohr
 
 
     Adding external electric field

     Computed dipole along edir(3) : 
        Dipole               -8.3255 Ry au,        -21.1613 Debye
        Dipole field         -0.0157 Ry au, 
 
        Potential amp.        1.4564 Ry
        Total length         46.3494 bohr
 
     Starting wfcs are  296 randomized atomic wfcs
     Checking if some PAW data can be deallocated... 
  @ DRIVER MODE: Message from server: STATUS
  @ DRIVER MODE: Message from server: POSDATA
  @ DRIVER MODE: Reading and sharing cell 
  @ DRIVER MODE: Reading and sharing positions 
  @ DRIVER MODE: Received positions 

     total cpu time spent up to now is       18.2 secs

     Self-consistent Calculation

     iteration #  1     ecut=    36.75 Ry     beta= 0.05
     Davidson diagonalization with overlap
     ethr =  1.00E-02,  avg # of iterations =  2.0

     negative rho (up, down):  1.077E-02 1.077E-02
 
     Adding external electric field

     Computed dipole along edir(3) : 
        Dipole               33.2703 Ry au,         84.5647 Debye
        Dipole field          0.0628 Ry au, 
 
        Potential amp.       -5.8201 Ry
        Total length         46.3494 bohr
 
 
     Adding external electric field

     Computed dipole along edir(3) : 
        Dipole               33.2703 Ry au,         84.5647 Debye
        Dipole field          0.0628 Ry au, 
 
        Potential amp.       -5.8201 Ry
        Total length         46.3494 bohr
 

     total cpu time spent up to now is       48.5 secs

     total energy              =   -3095.99864193 Ry
     estimated scf accuracy    <    2802.03941636 Ry

     total magnetization       =    -0.00 Bohr mag/cell
     absolute magnetization    =     0.08 Bohr mag/cell

     iteration #  2     ecut=    36.75 Ry     beta= 0.05
     Davidson diagonalization with overlap
     ethr =  1.00E-02,  avg # of iterations = 15.6

     negative rho (up, down):  1.013E-02 1.013E-02
 
     Adding external electric field

     Computed dipole along edir(3) : 
        Dipole               -3.8368 Ry au,         -9.7521 Debye
        Dipole field         -0.0072 Ry au, 
 
        Potential amp.        0.6712 Ry
        Total length         46.3494 bohr
 
 
     Adding external electric field

     Computed dipole along edir(3) : 
        Dipole               -3.8368 Ry au,         -9.7521 Debye
        Dipole field         -0.0072 Ry au, 
 
        Potential amp.        0.6712 Ry
        Total length         46.3494 bohr
 

     total cpu time spent up to now is      172.5 secs

     total energy              =   -2903.42592009 Ry
     estimated scf accuracy    <   56385.29097083 Ry

     total magnetization       =    -0.14 Bohr mag/cell
     absolute magnetization    =     0.70 Bohr mag/cell

     iteration #  3     ecut=    36.75 Ry     beta= 0.05
     Davidson diagonalization with overlap
     ethr =  1.00E-02,  avg # of iterations = 15.5

     negative rho (up, down):  9.936E-03 9.936E-03
 
     Adding external electric field

     Computed dipole along edir(3) : 
        Dipole               -5.2352 Ry au,        -13.3066 Debye
        Dipole field         -0.0099 Ry au, 
 
        Potential amp.        0.9158 Ry
        Total length         46.3494 bohr
 
 
     Adding external electric field

     Computed dipole along edir(3) : 
        Dipole               -5.2352 Ry au,        -13.3066 Debye
        Dipole field         -0.0099 Ry au, 
 
        Potential amp.        0.9158 Ry
        Total length         46.3494 bohr
 

     total cpu time spent up to now is      253.5 secs

     total energy              =   -3331.72271089 Ry
     estimated scf accuracy    <    2193.22911228 Ry

     total magnetization       =     0.34 Bohr mag/cell
     absolute magnetization    =     0.53 Bohr mag/cell

     iteration #  4     ecut=    36.75 Ry     beta= 0.05
     Davidson diagonalization with overlap
     ethr =  1.00E-02,  avg # of iterations =  6.5

     negative rho (up, down):  9.830E-03 9.831E-03
 
     Adding external electric field

     Computed dipole along edir(3) : 
        Dipole               -7.2765 Ry au,        -18.4950 Debye
        Dipole field         -0.0137 Ry au, 
 
        Potential amp.        1.2729 Ry
        Total length         46.3494 bohr
 
 
     Adding external electric field

     Computed dipole along edir(3) : 
        Dipole               -7.2765 Ry au,        -18.4950 Debye
        Dipole field         -0.0137 Ry au, 
 
        Potential amp.        1.2729 Ry
        Total length         46.3494 bohr
 

     total cpu time spent up to now is      281.1 secs

     total energy              =   -3302.69923543 Ry
     estimated scf accuracy    <    1598.30053451 Ry

     total magnetization       =     1.24 Bohr mag/cell
     absolute magnetization    =     1.54 Bohr mag/cell

     iteration #  5     ecut=    36.75 Ry     beta= 0.05
     Davidson diagonalization with overlap
     ethr =  1.00E-02,  avg # of iterations =  8.2

     negative rho (up, down):  9.534E-03 9.546E-03
 
     Adding external electric field

     Computed dipole along edir(3) : 
        Dipole               -5.4795 Ry au,        -13.9275 Debye
        Dipole field         -0.0103 Ry au, 
 
        Potential amp.        0.9586 Ry
        Total length         46.3494 bohr
 
 
     Adding external electric field

     Computed dipole along edir(3) : 
        Dipole               -5.4795 Ry au,        -13.9275 Debye
        Dipole field         -0.0103 Ry au, 
 
        Potential amp.        0.9586 Ry
        Total length         46.3494 bohr
 

     total cpu time spent up to now is      323.2 secs

     total energy              =   -3343.39274988 Ry
     estimated scf accuracy    <     567.81544716 Ry

     total magnetization       =     0.13 Bohr mag/cell
     absolute magnetization    =     0.65 Bohr mag/cell

     iteration #  6     ecut=    36.75 Ry     beta= 0.05
     Davidson diagonalization with overlap
     ethr =  1.00E-02,  avg # of iterations =  1.4

     negative rho (up, down):  9.664E-03 9.683E-03
 
     Adding external electric field

     Computed dipole along edir(3) : 
        Dipole               -4.9390 Ry au,        -12.5537 Debye
        Dipole field         -0.0093 Ry au, 
 
        Potential amp.        0.8640 Ry
        Total length         46.3494 bohr
 
 
     Adding external electric field

     Computed dipole along edir(3) : 
        Dipole               -4.9390 Ry au,        -12.5537 Debye
        Dipole field         -0.0093 Ry au, 
 
        Potential amp.        0.8640 Ry
        Total length         46.3494 bohr
 

     total cpu time spent up to now is      342.0 secs

     total energy              =   -3347.74568447 Ry
     estimated scf accuracy    <      86.54475216 Ry

     total magnetization       =     0.40 Bohr mag/cell
     absolute magnetization    =     0.46 Bohr mag/cell

     iteration #  7     ecut=    36.75 Ry     beta= 0.05
     Davidson diagonalization with overlap
     ethr =  1.00E-02,  avg # of iterations =  1.3

     negative rho (up, down):  1.065E-02 1.058E-02
 
     Adding external electric field

     Computed dipole along edir(3) : 
        Dipole               -2.1239 Ry au,         -5.3984 Debye
        Dipole field         -0.0040 Ry au, 
 
        Potential amp.        0.3715 Ry
        Total length         46.3494 bohr
 
 
     Adding external electric field

     Computed dipole along edir(3) : 
        Dipole               -2.1239 Ry au,         -5.3984 Debye
        Dipole field         -0.0040 Ry au, 
 
        Potential amp.        0.3715 Ry
        Total length         46.3494 bohr
 

     total cpu time spent up to now is      363.9 secs

     total energy              =   -3342.28623694 Ry
     estimated scf accuracy    <      78.52086229 Ry

     total magnetization       =     0.09 Bohr mag/cell
     absolute magnetization    =     0.57 Bohr mag/cell

     iteration #  8     ecut=    36.75 Ry     beta= 0.05
     Davidson diagonalization with overlap
     ethr =  1.00E-02,  avg # of iterations =  8.2

     negative rho (up, down):  1.052E-02 1.048E-02
 
     Adding external electric field

     Computed dipole along edir(3) : 
        Dipole               -2.8679 Ry au,         -7.2896 Debye
        Dipole field         -0.0054 Ry au, 
 
        Potential amp.        0.5017 Ry
        Total length         46.3494 bohr
 
 
     Adding external electric field

     Computed dipole along edir(3) : 
        Dipole               -2.8679 Ry au,         -7.2896 Debye
        Dipole field         -0.0054 Ry au, 
 
        Potential amp.        0.5017 Ry
        Total length         46.3494 bohr
 

     total cpu time spent up to now is      389.5 secs

     total energy              =   -3346.54016132 Ry
     estimated scf accuracy    <      12.81469681 Ry

     total magnetization       =     0.16 Bohr mag/cell
     absolute magnetization    =     0.45 Bohr mag/cell

     iteration #  9     ecut=    36.75 Ry     beta= 0.05
     Davidson diagonalization with overlap
     ethr =  3.25E-03,  avg # of iterations = 10.4

     negative rho (up, down):  1.056E-02 1.052E-02
 
     Adding external electric field

     Computed dipole along edir(3) : 
        Dipole               -3.3659 Ry au,         -8.5553 Debye
        Dipole field         -0.0064 Ry au, 
 
        Potential amp.        0.5888 Ry
        Total length         46.3494 bohr
 
 
     Adding external electric field

     Computed dipole along edir(3) : 
        Dipole               -3.3659 Ry au,         -8.5553 Debye
        Dipole field         -0.0064 Ry au, 
 
        Potential amp.        0.5888 Ry
        Total length         46.3494 bohr
 

     total cpu time spent up to now is      417.1 secs

     total energy              =   -3346.67675337 Ry
     estimated scf accuracy    <       8.96542740 Ry

     total magnetization       =     0.05 Bohr mag/cell
     absolute magnetization    =     0.13 Bohr mag/cell

     iteration # 10     ecut=    36.75 Ry     beta= 0.05
     Davidson diagonalization with overlap
     ethr =  2.28E-03,  avg # of iterations =  3.5

     negative rho (up, down):  1.198E-02 1.138E-02
 
     Adding external electric field

     Computed dipole along edir(3) : 
        Dipole               -2.1408 Ry au,         -5.4412 Debye
        Dipole field         -0.0040 Ry au, 
 
        Potential amp.        0.3745 Ry
        Total length         46.3494 bohr
 
 
     Adding external electric field

     Computed dipole along edir(3) : 
        Dipole               -2.1408 Ry au,         -5.4412 Debye
        Dipole field         -0.0040 Ry au, 
 
        Potential amp.        0.3745 Ry
        Total length         46.3494 bohr
 

     total cpu time spent up to now is      440.2 secs

     total energy              =   -3345.98866236 Ry
     estimated scf accuracy    <       7.32962324 Ry

     total magnetization       =    -0.13 Bohr mag/cell
     absolute magnetization    =     0.46 Bohr mag/cell

     iteration # 11     ecut=    36.75 Ry     beta= 0.05
     Davidson diagonalization with overlap
     c_bands:  1 eigenvalues not converged
     ethr =  1.86E-03,  avg # of iterations = 16.2

     negative rho (up, down):  1.210E-02 1.152E-02
 
     Adding external electric field

     Computed dipole along edir(3) : 
        Dipole               -2.8257 Ry au,         -7.1823 Debye
        Dipole field         -0.0053 Ry au, 
 
        Potential amp.        0.4943 Ry
        Total length         46.3494 bohr
 
 
     Adding external electric field

     Computed dipole along edir(3) : 
        Dipole               -2.8257 Ry au,         -7.1823 Debye
        Dipole field         -0.0053 Ry au, 
 
        Potential amp.        0.4943 Ry
        Total length         46.3494 bohr
 

     total cpu time spent up to now is      480.3 secs

     total energy              =   -3348.80722746 Ry
     estimated scf accuracy    <     860.60490768 Ry

     total magnetization       =    -0.08 Bohr mag/cell
     absolute magnetization    =     0.63 Bohr mag/cell

     iteration # 12     ecut=    36.75 Ry     beta= 0.05
     Davidson diagonalization with overlap
     ethr =  1.86E-03,  avg # of iterations =  2.0

     negative rho (up, down):  1.224E-02 1.163E-02
 
     Adding external electric field

     Computed dipole along edir(3) : 
        Dipole               -3.2036 Ry au,         -8.1427 Debye
        Dipole field         -0.0060 Ry au, 
 
        Potential amp.        0.5604 Ry
        Total length         46.3494 bohr
 
 
     Adding external electric field

     Computed dipole along edir(3) : 
        Dipole               -3.2036 Ry au,         -8.1427 Debye
        Dipole field         -0.0060 Ry au, 
 
        Potential amp.        0.5604 Ry
        Total length         46.3494 bohr
 

     total cpu time spent up to now is      499.5 secs

     total energy              =   -3348.32743721 Ry
     estimated scf accuracy    <     589.59375280 Ry

     total magnetization       =    -0.09 Bohr mag/cell
     absolute magnetization    =     0.55 Bohr mag/cell

     iteration # 13     ecut=    36.75 Ry     beta= 0.05
     Davidson diagonalization with overlap
     ethr =  1.86E-03,  avg # of iterations =  3.0

     negative rho (up, down):  1.250E-02 1.174E-02
 
     Adding external electric field

     Computed dipole along edir(3) : 
        Dipole               -2.5964 Ry au,         -6.5994 Debye
        Dipole field         -0.0049 Ry au, 
 
        Potential amp.        0.4542 Ry
        Total length         46.3494 bohr
 
 
     Adding external electric field

     Computed dipole along edir(3) : 
        Dipole               -2.5964 Ry au,         -6.5994 Debye
        Dipole field         -0.0049 Ry au, 
 
        Potential amp.        0.4542 Ry
        Total length         46.3494 bohr
 

     total cpu time spent up to now is      518.3 secs

     total energy              =   -3348.36625480 Ry
     estimated scf accuracy    <     394.16451743 Ry

     total magnetization       =     0.05 Bohr mag/cell
     absolute magnetization    =     0.59 Bohr mag/cell

     iteration # 14     ecut=    36.75 Ry     beta= 0.05
     Davidson diagonalization with overlap
     ethr =  1.86E-03,  avg # of iterations =  1.3

     negative rho (up, down):  1.227E-02 1.173E-02
 
     Adding external electric field

     Computed dipole along edir(3) : 
        Dipole               -1.8123 Ry au,         -4.6063 Debye
        Dipole field         -0.0034 Ry au, 
 
        Potential amp.        0.3170 Ry
        Total length         46.3494 bohr
 
 
     Adding external electric field

     Computed dipole along edir(3) : 
        Dipole               -1.8123 Ry au,         -4.6063 Debye
        Dipole field         -0.0034 Ry au, 
 
        Potential amp.        0.3170 Ry
        Total length         46.3494 bohr
 

     total cpu time spent up to now is      536.0 secs

     total energy              =   -3347.20490528 Ry
     estimated scf accuracy    <     513.41270126 Ry

     total magnetization       =     0.02 Bohr mag/cell
     absolute magnetization    =     0.42 Bohr mag/cell

     iteration # 15     ecut=    36.75 Ry     beta= 0.05
     Davidson diagonalization with overlap
     ethr =  1.86E-03,  avg # of iterations =  7.0

     negative rho (up, down):  1.096E-02 1.100E-02
 
     Adding external electric field

     Computed dipole along edir(3) : 
        Dipole               -3.8107 Ry au,         -9.6858 Debye
        Dipole field         -0.0072 Ry au, 
 
        Potential amp.        0.6666 Ry
        Total length         46.3494 bohr
 
 
     Adding external electric field

     Computed dipole along edir(3) : 
        Dipole               -3.8107 Ry au,         -9.6858 Debye
        Dipole field         -0.0072 Ry au, 
 
        Potential amp.        0.6666 Ry
        Total length         46.3494 bohr
 

     total cpu time spent up to now is      559.3 secs

     total energy              =   -3339.42601294 Ry
     estimated scf accuracy    <     595.06877765 Ry

     total magnetization       =     0.18 Bohr mag/cell
     absolute magnetization    =     0.41 Bohr mag/cell

     iteration # 16     ecut=    36.75 Ry     beta= 0.05
     Davidson diagonalization with overlap
     ethr =  1.86E-03,  avg # of iterations =  9.3

     negative rho (up, down):  1.122E-02 1.128E-02
 
     Adding external electric field

     Computed dipole along edir(3) : 
        Dipole               -2.8692 Ry au,         -7.2929 Debye
        Dipole field         -0.0054 Ry au, 
 
        Potential amp.        0.5019 Ry
        Total length         46.3494 bohr
 
 
     Adding external electric field

     Computed dipole along edir(3) : 
        Dipole               -2.8692 Ry au,         -7.2929 Debye
        Dipole field         -0.0054 Ry au, 
 
        Potential amp.        0.5019 Ry
        Total length         46.3494 bohr
 

     total cpu time spent up to now is      592.6 secs

     total energy              =   -3345.05970075 Ry
     estimated scf accuracy    <      38.59856972 Ry

     total magnetization       =     0.01 Bohr mag/cell
     absolute magnetization    =     0.11 Bohr mag/cell

     iteration # 17     ecut=    36.75 Ry     beta= 0.05
     Davidson diagonalization with overlap
     ethr =  1.86E-03,  avg # of iterations =  6.3

     negative rho (up, down):  1.139E-02 1.146E-02
 
     Adding external electric field

     Computed dipole along edir(3) : 
        Dipole               -1.4797 Ry au,         -3.7611 Debye
        Dipole field         -0.0028 Ry au, 
 
        Potential amp.        0.2589 Ry
        Total length         46.3494 bohr
 
 
     Adding external electric field

     Computed dipole along edir(3) : 
        Dipole               -1.4797 Ry au,         -3.7611 Debye
        Dipole field         -0.0028 Ry au, 
 
        Potential amp.        0.2589 Ry
        Total length         46.3494 bohr
 

     total cpu time spent up to now is      613.3 secs

     total energy              =   -3343.76197016 Ry
     estimated scf accuracy    <      18.47399181 Ry

     total magnetization       =     0.02 Bohr mag/cell
     absolute magnetization    =     0.15 Bohr mag/cell

     iteration # 18     ecut=    36.75 Ry     beta= 0.05
     Davidson diagonalization with overlap
     ethr =  1.86E-03,  avg # of iterations =  7.8

     negative rho (up, down):  1.140E-02 1.145E-02
 
     Adding external electric field

     Computed dipole along edir(3) : 
        Dipole               -1.7463 Ry au,         -4.4388 Debye
        Dipole field         -0.0033 Ry au, 
 
        Potential amp.        0.3055 Ry
        Total length         46.3494 bohr
 
 
     Adding external electric field

     Computed dipole along edir(3) : 
        Dipole               -1.7463 Ry au,         -4.4388 Debye
        Dipole field         -0.0033 Ry au, 
 
        Potential amp.        0.3055 Ry
        Total length         46.3494 bohr
 

     total cpu time spent up to now is      641.1 secs

     total energy              =   -3345.72166002 Ry
     estimated scf accuracy    <       5.49827596 Ry

     total magnetization       =     0.00 Bohr mag/cell
     absolute magnetization    =     0.10 Bohr mag/cell

     iteration # 19     ecut=    36.75 Ry     beta= 0.05
     Davidson diagonalization with overlap
     ethr =  1.40E-03,  avg # of iterations =  1.7

     negative rho (up, down):  1.148E-02 1.148E-02
 
     Adding external electric field

     Computed dipole along edir(3) : 
        Dipole               -2.2956 Ry au,         -5.8349 Debye
        Dipole field         -0.0043 Ry au, 
 
        Potential amp.        0.4016 Ry
        Total length         46.3494 bohr
 
 
     Adding external electric field

     Computed dipole along edir(3) : 
        Dipole               -2.2956 Ry au,         -5.8349 Debye
        Dipole field         -0.0043 Ry au, 
 
        Potential amp.        0.4016 Ry
        Total length         46.3494 bohr
 

     total cpu time spent up to now is      666.5 secs

     total energy              =   -3345.26024659 Ry
     estimated scf accuracy    <       4.11341407 Ry

     total magnetization       =    -0.00 Bohr mag/cell
     absolute magnetization    =     0.09 Bohr mag/cell

     iteration # 20     ecut=    36.75 Ry     beta= 0.05
     Davidson diagonalization with overlap
     ethr =  1.04E-03,  avg # of iterations =  5.8

     negative rho (up, down):  1.151E-02 1.148E-02
 
     Adding external electric field

     Computed dipole along edir(3) : 
        Dipole               -2.2998 Ry au,         -5.8455 Debye
        Dipole field         -0.0043 Ry au, 
 
        Potential amp.        0.4023 Ry
        Total length         46.3494 bohr
 
 
     Adding external electric field

     Computed dipole along edir(3) : 
        Dipole               -2.2998 Ry au,         -5.8455 Debye
        Dipole field         -0.0043 Ry au, 
 
        Potential amp.        0.4023 Ry
        Total length         46.3494 bohr
 

     total cpu time spent up to now is      690.9 secs

     total energy              =   -3345.42366112 Ry
     estimated scf accuracy    <       2.40617625 Ry

     total magnetization       =     0.10 Bohr mag/cell
     absolute magnetization    =     0.18 Bohr mag/cell

     iteration # 21     ecut=    36.75 Ry     beta= 0.05
     Davidson diagonalization with overlap
     ethr =  6.11E-04,  avg # of iterations =  1.8

     negative rho (up, down):  1.230E-02 1.185E-02
 
     Adding external electric field

     Computed dipole along edir(3) : 
        Dipole               -2.3032 Ry au,         -5.8540 Debye
        Dipole field         -0.0043 Ry au, 
 
        Potential amp.        0.4029 Ry
        Total length         46.3494 bohr
 
 
     Adding external electric field

     Computed dipole along edir(3) : 
        Dipole               -2.3032 Ry au,         -5.8540 Debye
        Dipole field         -0.0043 Ry au, 
 
        Potential amp.        0.4029 Ry
        Total length         46.3494 bohr
 

     total cpu time spent up to now is      727.7 secs

     total energy              =   -3345.32269012 Ry
     estimated scf accuracy    <       1.74215855 Ry

     total magnetization       =     0.24 Bohr mag/cell
     absolute magnetization    =     0.30 Bohr mag/cell

     iteration # 22     ecut=    36.75 Ry     beta= 0.05
     Davidson diagonalization with overlap
     ethr =  4.42E-04,  avg # of iterations =  5.5

     negative rho (up, down):  1.135E-02 1.136E-02
 
     Adding external electric field

     Computed dipole along edir(3) : 
        Dipole               -1.8807 Ry au,         -4.7802 Debye
        Dipole field         -0.0035 Ry au, 
 
        Potential amp.        0.3290 Ry
        Total length         46.3494 bohr
 
 
     Adding external electric field

     Computed dipole along edir(3) : 
        Dipole               -1.8807 Ry au,         -4.7802 Debye
        Dipole field         -0.0035 Ry au, 
 
        Potential amp.        0.3290 Ry
        Total length         46.3494 bohr
 

     total cpu time spent up to now is      764.5 secs

     total energy              =   -3345.18295335 Ry
     estimated scf accuracy    <       2.04631985 Ry

     total magnetization       =     0.21 Bohr mag/cell
     absolute magnetization    =     0.29 Bohr mag/cell

     iteration # 23     ecut=    36.75 Ry     beta= 0.05
     Davidson diagonalization with overlap
     c_bands:  1 eigenvalues not converged
     ethr =  4.42E-04,  avg # of iterations =  7.3

     negative rho (up, down):  1.191E-02 1.162E-02
 
     Adding external electric field

     Computed dipole along edir(3) : 
        Dipole               -1.7297 Ry au,         -4.3965 Debye
        Dipole field         -0.0033 Ry au, 
 
        Potential amp.        0.3026 Ry
        Total length         46.3494 bohr
 
 
     Adding external electric field

     Computed dipole along edir(3) : 
        Dipole               -1.7297 Ry au,         -4.3965 Debye
        Dipole field         -0.0033 Ry au, 
 
        Potential amp.        0.3026 Ry
        Total length         46.3494 bohr
 

     total cpu time spent up to now is      811.0 secs

     total energy              =   -3345.16622518 Ry
     estimated scf accuracy    <       2.23448140 Ry

     total magnetization       =     0.00 Bohr mag/cell
     absolute magnetization    =     0.08 Bohr mag/cell

     iteration # 24     ecut=    36.75 Ry     beta= 0.05
     Davidson diagonalization with overlap
     c_bands:  1 eigenvalues not converged
     c_bands:  2 eigenvalues not converged
     c_bands:  2 eigenvalues not converged
     c_bands:  1 eigenvalues not converged
     ethr =  4.42E-04,  avg # of iterations = 17.8

     negative rho (up, down):  1.187E-02 1.158E-02
 
     Adding external electric field

     Computed dipole along edir(3) : 
        Dipole               -1.6648 Ry au,         -4.2314 Debye
        Dipole field         -0.0031 Ry au, 
 
        Potential amp.        0.2912 Ry
        Total length         46.3494 bohr
 
 
     Adding external electric field

     Computed dipole along edir(3) : 
        Dipole               -1.6648 Ry au,         -4.2314 Debye
        Dipole field         -0.0031 Ry au, 
 
        Potential amp.        0.2912 Ry
        Total length         46.3494 bohr
 

     total cpu time spent up to now is      855.1 secs

     total energy              =   -3345.46520643 Ry
     estimated scf accuracy    <       5.95909761 Ry

     total magnetization       =     0.06 Bohr mag/cell
     absolute magnetization    =     0.17 Bohr mag/cell

     iteration # 25     ecut=    36.75 Ry     beta= 0.05
     Davidson diagonalization with overlap
     ethr =  4.42E-04,  avg # of iterations =  1.1

     negative rho (up, down):  1.166E-02 1.146E-02
 
     Adding external electric field

     Computed dipole along edir(3) : 
        Dipole               -1.4219 Ry au,         -3.6141 Debye
        Dipole field         -0.0027 Ry au, 
 
        Potential amp.        0.2487 Ry
        Total length         46.3494 bohr
 
 
     Adding external electric field

     Computed dipole along edir(3) : 
        Dipole               -1.4219 Ry au,         -3.6141 Debye
        Dipole field         -0.0027 Ry au, 
 
        Potential amp.        0.2487 Ry
        Total length         46.3494 bohr
 

     total cpu time spent up to now is      882.2 secs

     total energy              =   -3345.28474963 Ry
     estimated scf accuracy    <       5.84159249 Ry

     total magnetization       =     0.07 Bohr mag/cell
     absolute magnetization    =     0.18 Bohr mag/cell

     iteration # 26     ecut=    36.75 Ry     beta= 0.05
     Davidson diagonalization with overlap
     ethr =  4.42E-04,  avg # of iterations =  1.1

     negative rho (up, down):  1.169E-02 1.147E-02
 
     Adding external electric field

     Computed dipole along edir(3) : 
        Dipole               -1.2907 Ry au,         -3.2807 Debye
        Dipole field         -0.0024 Ry au, 
 
        Potential amp.        0.2258 Ry
        Total length         46.3494 bohr
 
 
     Adding external electric field

     Computed dipole along edir(3) : 
        Dipole               -1.2907 Ry au,         -3.2807 Debye
        Dipole field         -0.0024 Ry au, 
 
        Potential amp.        0.2258 Ry
        Total length         46.3494 bohr
 

     total cpu time spent up to now is      902.1 secs

     total energy              =   -3345.26270201 Ry
     estimated scf accuracy    <       3.09871899 Ry

     total magnetization       =     0.41 Bohr mag/cell
     absolute magnetization    =     0.45 Bohr mag/cell

     iteration # 27     ecut=    36.75 Ry     beta= 0.05
     Davidson diagonalization with overlap
     ethr =  4.42E-04,  avg # of iterations =  1.1

     negative rho (up, down):  1.231E-02 1.181E-02
 
     Adding external electric field

     Computed dipole along edir(3) : 
        Dipole               -2.0110 Ry au,         -5.1114 Debye
        Dipole field         -0.0038 Ry au, 
 
        Potential amp.        0.3518 Ry
        Total length         46.3494 bohr
 
 
     Adding external electric field

     Computed dipole along edir(3) : 
        Dipole               -2.0110 Ry au,         -5.1114 Debye
        Dipole field         -0.0038 Ry au, 
 
        Potential amp.        0.3518 Ry
        Total length         46.3494 bohr
 

     total cpu time spent up to now is      925.6 secs

     total energy              =   -3345.23460893 Ry
     estimated scf accuracy    <       1.15169289 Ry

     total magnetization       =     0.36 Bohr mag/cell
     absolute magnetization    =     0.41 Bohr mag/cell

     iteration # 28     ecut=    36.75 Ry     beta= 0.05
     Davidson diagonalization with overlap
     c_bands:  1 eigenvalues not converged
     c_bands:  1 eigenvalues not converged
     ethr =  2.92E-04,  avg # of iterations =  7.7

     negative rho (up, down):  1.200E-02 1.161E-02
 
     Adding external electric field

     Computed dipole along edir(3) : 
        Dipole               -1.8730 Ry au,         -4.7608 Debye
        Dipole field         -0.0035 Ry au, 
 
        Potential amp.        0.3277 Ry
        Total length         46.3494 bohr
 
 
     Adding external electric field

     Computed dipole along edir(3) : 
        Dipole               -1.8730 Ry au,         -4.7608 Debye
        Dipole field         -0.0035 Ry au, 
 
        Potential amp.        0.3277 Ry
        Total length         46.3494 bohr
 

     total cpu time spent up to now is      961.3 secs

     total energy              =   -3345.48072876 Ry
     estimated scf accuracy    <      71.04256439 Ry

     total magnetization       =     0.04 Bohr mag/cell
     absolute magnetization    =     0.14 Bohr mag/cell

     iteration # 29     ecut=    36.75 Ry     beta= 0.05
     Davidson diagonalization with overlap
     ethr =  2.92E-04,  avg # of iterations =  1.4

     negative rho (up, down):  1.189E-02 1.154E-02
 
     Adding external electric field

     Computed dipole along edir(3) : 
        Dipole               -1.8246 Ry au,         -4.6376 Debye
        Dipole field         -0.0034 Ry au, 
 
        Potential amp.        0.3192 Ry
        Total length         46.3494 bohr
 
 
     Adding external electric field

     Computed dipole along edir(3) : 
        Dipole               -1.8246 Ry au,         -4.6376 Debye
        Dipole field         -0.0034 Ry au, 
 
        Potential amp.        0.3192 Ry
        Total length         46.3494 bohr
 

     total cpu time spent up to now is      980.8 secs

     total energy              =   -3345.41532137 Ry
     estimated scf accuracy    <      57.73325486 Ry

     total magnetization       =     0.53 Bohr mag/cell
     absolute magnetization    =     0.61 Bohr mag/cell

     iteration # 30     ecut=    36.75 Ry     beta= 0.05
     Davidson diagonalization with overlap
     ethr =  2.92E-04,  avg # of iterations =  1.1

     negative rho (up, down):  1.148E-02 1.135E-02
 
     Adding external electric field

     Computed dipole along edir(3) : 
        Dipole               -0.9469 Ry au,         -2.4069 Debye
        Dipole field         -0.0018 Ry au, 
 
        Potential amp.        0.1657 Ry
        Total length         46.3494 bohr
 
 
     Adding external electric field

     Computed dipole along edir(3) : 
        Dipole               -0.9469 Ry au,         -2.4069 Debye
        Dipole field         -0.0018 Ry au, 
 
        Potential amp.        0.1657 Ry
        Total length         46.3494 bohr
 

     total cpu time spent up to now is     1003.1 secs

     total energy              =   -3344.64169671 Ry
     estimated scf accuracy    <      31.07598989 Ry

     total magnetization       =     1.69 Bohr mag/cell
     absolute magnetization    =     1.80 Bohr mag/cell

     iteration # 31     ecut=    36.75 Ry     beta= 0.05
     Davidson diagonalization with overlap
     c_bands:  1 eigenvalues not converged
     c_bands:  1 eigenvalues not converged
     c_bands:  1 eigenvalues not converged
     ethr =  2.92E-04,  avg # of iterations = 18.2

     negative rho (up, down):  1.156E-02 1.135E-02
 
     Adding external electric field

     Computed dipole along edir(3) : 
        Dipole               -1.1909 Ry au,         -3.0271 Debye
        Dipole field         -0.0022 Ry au, 
 
        Potential amp.        0.2083 Ry
        Total length         46.3494 bohr
 
 
     Adding external electric field

     Computed dipole along edir(3) : 
        Dipole               -1.1909 Ry au,         -3.0271 Debye
        Dipole field         -0.0022 Ry au, 
 
        Potential amp.        0.2083 Ry
        Total length         46.3494 bohr
 

     total cpu time spent up to now is     1084.7 secs

     total energy              =   -3345.12891269 Ry
     estimated scf accuracy    <       1.16452333 Ry

     total magnetization       =     0.47 Bohr mag/cell
     absolute magnetization    =     0.53 Bohr mag/cell

     iteration # 32     ecut=    36.75 Ry     beta= 0.05
     Davidson diagonalization with overlap
     ethr =  2.92E-04,  avg # of iterations =  6.0

     negative rho (up, down):  1.149E-02 1.129E-02
 
     Adding external electric field

     Computed dipole along edir(3) : 
        Dipole               -1.1037 Ry au,         -2.8053 Debye
        Dipole field         -0.0021 Ry au, 
 
        Potential amp.        0.1931 Ry
        Total length         46.3494 bohr
 
 
     Adding external electric field

     Computed dipole along edir(3) : 
        Dipole               -1.1037 Ry au,         -2.8053 Debye
        Dipole field         -0.0021 Ry au, 
 
        Potential amp.        0.1931 Ry
        Total length         46.3494 bohr
 

     total cpu time spent up to now is     1112.2 secs

     total energy              =   -3345.17929169 Ry
     estimated scf accuracy    <       0.35164827 Ry

     total magnetization       =     0.50 Bohr mag/cell
     absolute magnetization    =     0.55 Bohr mag/cell

     iteration # 33     ecut=    36.75 Ry     beta= 0.05
     Davidson diagonalization with overlap
     c_bands:  4 eigenvalues not converged
     c_bands:  1 eigenvalues not converged
     c_bands:  1 eigenvalues not converged
     c_bands:  3 eigenvalues not converged
     c_bands:  1 eigenvalues not converged
     ethr =  8.93E-05,  avg # of iterations = 17.1

     negative rho (up, down):  1.157E-02 1.133E-02
 
     Adding external electric field

     Computed dipole along edir(3) : 
        Dipole               -1.2480 Ry au,         -3.1721 Debye
        Dipole field         -0.0024 Ry au, 
 
        Potential amp.        0.2183 Ry
        Total length         46.3494 bohr
 
 
     Adding external electric field

     Computed dipole along edir(3) : 
        Dipole               -1.2480 Ry au,         -3.1721 Debye
        Dipole field         -0.0024 Ry au, 
 
        Potential amp.        0.2183 Ry
        Total length         46.3494 bohr
 

     total cpu time spent up to now is     1162.6 secs

     total energy              =   -3345.19270202 Ry
     estimated scf accuracy    <       0.16893155 Ry

     total magnetization       =     1.01 Bohr mag/cell
     absolute magnetization    =     1.04 Bohr mag/cell

     iteration # 34     ecut=    36.75 Ry     beta= 0.05
     Davidson diagonalization with overlap
     c_bands:  1 eigenvalues not converged
     c_bands:  4 eigenvalues not converged
     ethr =  4.29E-05,  avg # of iterations = 17.1

     negative rho (up, down):  1.143E-02 1.124E-02
 
     Adding external electric field

     Computed dipole along edir(3) : 
        Dipole               -1.0401 Ry au,         -2.6436 Debye
        Dipole field         -0.0020 Ry au, 
 
        Potential amp.        0.1819 Ry
        Total length         46.3494 bohr
 
 
     Adding external electric field

     Computed dipole along edir(3) : 
        Dipole               -1.0401 Ry au,         -2.6436 Debye
        Dipole field         -0.0020 Ry au, 
 
        Potential amp.        0.1819 Ry
        Total length         46.3494 bohr
 

     total cpu time spent up to now is     1206.4 secs

     total energy              =   -3345.18186160 Ry
     estimated scf accuracy    <       3.99220249 Ry

     total magnetization       =     0.16 Bohr mag/cell
     absolute magnetization    =     0.34 Bohr mag/cell

     iteration # 35     ecut=    36.75 Ry     beta= 0.05
     Davidson diagonalization with overlap
     c_bands:  1 eigenvalues not converged
     c_bands:  1 eigenvalues not converged
     c_bands:  1 eigenvalues not converged
     c_bands:  1 eigenvalues not converged
     ethr =  4.29E-05,  avg # of iterations = 15.1

     negative rho (up, down):  1.128E-02 1.114E-02
 
     Adding external electric field

     Computed dipole along edir(3) : 
        Dipole               -0.9393 Ry au,         -2.3875 Debye
        Dipole field         -0.0018 Ry au, 
 
        Potential amp.        0.1643 Ry
        Total length         46.3494 bohr
 
 
     Adding external electric field

     Computed dipole along edir(3) : 
        Dipole               -0.9393 Ry au,         -2.3875 Debye
        Dipole field         -0.0018 Ry au, 
 
        Potential amp.        0.1643 Ry
        Total length         46.3494 bohr
 

     total cpu time spent up to now is     1237.8 secs

     total energy              =   -3345.19522501 Ry
     estimated scf accuracy    <       0.27888514 Ry

     total magnetization       =     0.81 Bohr mag/cell
     absolute magnetization    =     0.88 Bohr mag/cell

     iteration # 36     ecut=    36.75 Ry     beta= 0.05
     Davidson diagonalization with overlap
     c_bands:  1 eigenvalues not converged
     ethr =  4.29E-05,  avg # of iterations =  3.0

     negative rho (up, down):  1.119E-02 1.109E-02
 
     Adding external electric field

     Computed dipole along edir(3) : 
        Dipole               -0.9006 Ry au,         -2.2892 Debye
        Dipole field         -0.0017 Ry au, 
 
        Potential amp.        0.1576 Ry
        Total length         46.3494 bohr
 
 
     Adding external electric field

     Computed dipole along edir(3) : 
        Dipole               -0.9006 Ry au,         -2.2892 Debye
        Dipole field         -0.0017 Ry au, 
 
        Potential amp.        0.1576 Ry
        Total length         46.3494 bohr
 

     total cpu time spent up to now is     1266.0 secs

     total energy              =   -3345.19834805 Ry
     estimated scf accuracy    <       0.06920772 Ry

     total magnetization       =     1.06 Bohr mag/cell
     absolute magnetization    =     1.10 Bohr mag/cell

     iteration # 37     ecut=    36.75 Ry     beta= 0.05
     Davidson diagonalization with overlap
     c_bands:  4 eigenvalues not converged
     c_bands:  3 eigenvalues not converged
     c_bands:  1 eigenvalues not converged
     ethr =  1.76E-05,  avg # of iterations =  6.8

     negative rho (up, down):  1.099E-02 1.097E-02
 
     Adding external electric field

     Computed dipole along edir(3) : 
        Dipole               -0.7251 Ry au,         -1.8431 Debye
        Dipole field         -0.0014 Ry au, 
 
        Potential amp.        0.1269 Ry
        Total length         46.3494 bohr
 
 
     Adding external electric field

     Computed dipole along edir(3) : 
        Dipole               -0.7251 Ry au,         -1.8431 Debye
        Dipole field         -0.0014 Ry au, 
 
        Potential amp.        0.1269 Ry
        Total length         46.3494 bohr
 

     total cpu time spent up to now is     1292.1 secs

     total energy              =   -3345.19913098 Ry
     estimated scf accuracy    <       0.06600380 Ry

     total magnetization       =     0.96 Bohr mag/cell
     absolute magnetization    =     1.02 Bohr mag/cell

     iteration # 38     ecut=    36.75 Ry     beta= 0.05
     Davidson diagonalization with overlap
     c_bands:  3 eigenvalues not converged
     c_bands:  1 eigenvalues not converged
     c_bands:  4 eigenvalues not converged
     c_bands:  3 eigenvalues not converged
     ethr =  1.68E-05,  avg # of iterations =  6.8

     negative rho (up, down):  1.080E-02 1.087E-02
 
     Adding external electric field

     Computed dipole along edir(3) : 
        Dipole               -0.5994 Ry au,         -1.5235 Debye
        Dipole field         -0.0011 Ry au, 
 
        Potential amp.        0.1049 Ry
        Total length         46.3494 bohr
 
 
     Adding external electric field

     Computed dipole along edir(3) : 
        Dipole               -0.5994 Ry au,         -1.5235 Debye
        Dipole field         -0.0011 Ry au, 
 
        Potential amp.        0.1049 Ry
        Total length         46.3494 bohr
 

     total cpu time spent up to now is     1314.1 secs

     total energy              =   -3345.20076754 Ry
     estimated scf accuracy    <       0.02454686 Ry

     total magnetization       =     0.98 Bohr mag/cell
     absolute magnetization    =     1.04 Bohr mag/cell

     iteration # 39     ecut=    36.75 Ry     beta= 0.05
     Davidson diagonalization with overlap
     c_bands:  1 eigenvalues not converged
     c_bands:  1 eigenvalues not converged
     ethr =  6.23E-06,  avg # of iterations = 12.8

     negative rho (up, down):  1.073E-02 1.081E-02
 
     Adding external electric field

     Computed dipole along edir(3) : 
        Dipole               -0.5872 Ry au,         -1.4925 Debye
        Dipole field         -0.0011 Ry au, 
 
        Potential amp.        0.1027 Ry
        Total length         46.3494 bohr
 
 
     Adding external electric field

     Computed dipole along edir(3) : 
        Dipole               -0.5872 Ry au,         -1.4925 Debye
        Dipole field         -0.0011 Ry au, 
 
        Potential amp.        0.1027 Ry
        Total length         46.3494 bohr
 

     total cpu time spent up to now is     1352.7 secs

     total energy              =   -3345.20239407 Ry
     estimated scf accuracy    <       0.05885666 Ry

     total magnetization       =     0.96 Bohr mag/cell
     absolute magnetization    =     1.04 Bohr mag/cell

     iteration # 40     ecut=    36.75 Ry     beta= 0.05
     Davidson diagonalization with overlap
     ethr =  6.23E-06,  avg # of iterations =  3.5

     negative rho (up, down):  1.062E-02 1.073E-02
 
     Adding external electric field

     Computed dipole along edir(3) : 
        Dipole               -0.5991 Ry au,         -1.5228 Debye
        Dipole field         -0.0011 Ry au, 
 
        Potential amp.        0.1048 Ry
        Total length         46.3494 bohr
 
 
     Adding external electric field

     Computed dipole along edir(3) : 
        Dipole               -0.5991 Ry au,         -1.5228 Debye
        Dipole field         -0.0011 Ry au, 
 
        Potential amp.        0.1048 Ry
        Total length         46.3494 bohr
 

     total cpu time spent up to now is     1399.8 secs

     total energy              =   -3345.20289497 Ry
     estimated scf accuracy    <       0.00719171 Ry

     total magnetization       =     1.02 Bohr mag/cell
     absolute magnetization    =     1.09 Bohr mag/cell

     iteration # 41     ecut=    36.75 Ry     beta= 0.05
     Davidson diagonalization with overlap
     c_bands:  1 eigenvalues not converged
     c_bands:  1 eigenvalues not converged
     c_bands:  2 eigenvalues not converged
     c_bands:  1 eigenvalues not converged
     c_bands:  1 eigenvalues not converged
     c_bands:  1 eigenvalues not converged
     c_bands:  1 eigenvalues not converged
     c_bands:  1 eigenvalues not converged
     c_bands:  4 eigenvalues not converged
     c_bands:  1 eigenvalues not converged
     ethr =  1.83E-06,  avg # of iterations = 16.6

     negative rho (up, down):  1.075E-02 1.093E-02
 
     Adding external electric field

     Computed dipole along edir(3) : 
        Dipole               -0.5056 Ry au,         -1.2851 Debye
        Dipole field         -0.0010 Ry au, 
 
        Potential amp.        0.0884 Ry
        Total length         46.3494 bohr
 
 
     Adding external electric field

     Computed dipole along edir(3) : 
        Dipole               -0.5056 Ry au,         -1.2851 Debye
        Dipole field         -0.0010 Ry au, 
 
        Potential amp.        0.0884 Ry
        Total length         46.3494 bohr
 

     total cpu time spent up to now is     1548.3 secs

     total energy              =   -3345.20452482 Ry
     estimated scf accuracy    <       0.00561374 Ry

     total magnetization       =     0.97 Bohr mag/cell
     absolute magnetization    =     1.06 Bohr mag/cell

     iteration # 42     ecut=    36.75 Ry     beta= 0.05
     Davidson diagonalization with overlap
     c_bands:  2 eigenvalues not converged
     c_bands:  1 eigenvalues not converged
     c_bands:  1 eigenvalues not converged
     ethr =  1.42E-06,  avg # of iterations = 11.2

     negative rho (up, down):  1.087E-02 1.107E-02
 
     Adding external electric field

     Computed dipole along edir(3) : 
        Dipole               -0.4859 Ry au,         -1.2352 Debye
        Dipole field         -0.0009 Ry au, 
 
        Potential amp.        0.0850 Ry
        Total length         46.3494 bohr
 
 
     Adding external electric field

     Computed dipole along edir(3) : 
        Dipole               -0.4859 Ry au,         -1.2352 Debye
        Dipole field         -0.0009 Ry au, 
 
        Potential amp.        0.0850 Ry
        Total length         46.3494 bohr
 

     total cpu time spent up to now is     1583.7 secs

     total energy              =   -3345.20562908 Ry
     estimated scf accuracy    <       0.02149182 Ry

     total magnetization       =     1.06 Bohr mag/cell
     absolute magnetization    =     1.14 Bohr mag/cell

     iteration # 43     ecut=    36.75 Ry     beta= 0.05
     Davidson diagonalization with overlap
     ethr =  1.42E-06,  avg # of iterations =  4.7

     negative rho (up, down):  1.060E-02 1.080E-02
 
     Adding external electric field

     Computed dipole along edir(3) : 
        Dipole               -0.5022 Ry au,         -1.2764 Debye
        Dipole field         -0.0009 Ry au, 
 
        Potential amp.        0.0878 Ry
        Total length         46.3494 bohr
 
 
     Adding external electric field

     Computed dipole along edir(3) : 
        Dipole               -0.5022 Ry au,         -1.2764 Debye
        Dipole field         -0.0009 Ry au, 
 
        Potential amp.        0.0878 Ry
        Total length         46.3494 bohr
 

     total cpu time spent up to now is     1630.1 secs

     total energy              =   -3345.20554565 Ry
     estimated scf accuracy    <       0.01068622 Ry

     total magnetization       =     1.00 Bohr mag/cell
     absolute magnetization    =     1.11 Bohr mag/cell

     iteration # 44     ecut=    36.75 Ry     beta= 0.05
     Davidson diagonalization with overlap
     ethr =  1.42E-06,  avg # of iterations =  1.8

     negative rho (up, down):  1.054E-02 1.075E-02
 
     Adding external electric field

     Computed dipole along edir(3) : 
        Dipole               -0.5014 Ry au,         -1.2744 Debye
        Dipole field         -0.0009 Ry au, 
 
        Potential amp.        0.0877 Ry
        Total length         46.3494 bohr
 
 
     Adding external electric field

     Computed dipole along edir(3) : 
        Dipole               -0.5014 Ry au,         -1.2744 Debye
        Dipole field         -0.0009 Ry au, 
 
        Potential amp.        0.0877 Ry
        Total length         46.3494 bohr
 

     total cpu time spent up to now is     1647.8 secs

     total energy              =   -3345.20562639 Ry
     estimated scf accuracy    <       0.00796002 Ry

     total magnetization       =     1.04 Bohr mag/cell
     absolute magnetization    =     1.14 Bohr mag/cell

     iteration # 45     ecut=    36.75 Ry     beta= 0.05
     Davidson diagonalization with overlap
     ethr =  1.42E-06,  avg # of iterations =  5.0

     negative rho (up, down):  1.069E-02 1.092E-02
 
     Adding external electric field

     Computed dipole along edir(3) : 
        Dipole               -0.4871 Ry au,         -1.2382 Debye
        Dipole field         -0.0009 Ry au, 
 
        Potential amp.        0.0852 Ry
        Total length         46.3494 bohr
 
 
     Adding external electric field

     Computed dipole along edir(3) : 
        Dipole               -0.4871 Ry au,         -1.2382 Debye
        Dipole field         -0.0009 Ry au, 
 
        Potential amp.        0.0852 Ry
        Total length         46.3494 bohr
 

     total cpu time spent up to now is     1682.5 secs

     total energy              =   -3345.20605256 Ry
     estimated scf accuracy    <       0.00255472 Ry

     total magnetization       =     0.99 Bohr mag/cell
     absolute magnetization    =     1.12 Bohr mag/cell

     iteration # 46     ecut=    36.75 Ry     beta= 0.05
     Davidson diagonalization with overlap
     ethr =  6.48E-07,  avg # of iterations =  4.8

     negative rho (up, down):  1.092E-02 1.118E-02
 
     Adding external electric field

     Computed dipole along edir(3) : 
        Dipole               -0.4698 Ry au,         -1.1941 Debye
        Dipole field         -0.0009 Ry au, 
 
        Potential amp.        0.0822 Ry
        Total length         46.3494 bohr
 
 
     Adding external electric field

     Computed dipole along edir(3) : 
        Dipole               -0.4698 Ry au,         -1.1941 Debye
        Dipole field         -0.0009 Ry au, 
 
        Potential amp.        0.0822 Ry
        Total length         46.3494 bohr
 

     total cpu time spent up to now is     1704.6 secs

     total energy              =   -3345.20666517 Ry
     estimated scf accuracy    <       0.00319739 Ry

     total magnetization       =     1.08 Bohr mag/cell
     absolute magnetization    =     1.20 Bohr mag/cell

     iteration # 47     ecut=    36.75 Ry     beta= 0.05
     Davidson diagonalization with overlap
     ethr =  6.48E-07,  avg # of iterations =  5.2

     negative rho (up, down):  1.061E-02 1.088E-02
 
     Adding external electric field

     Computed dipole along edir(3) : 
        Dipole               -0.4745 Ry au,         -1.2059 Debye
        Dipole field         -0.0009 Ry au, 
 
        Potential amp.        0.0830 Ry
        Total length         46.3494 bohr
 
 
     Adding external electric field

     Computed dipole along edir(3) : 
        Dipole               -0.4745 Ry au,         -1.2059 Debye
        Dipole field         -0.0009 Ry au, 
 
        Potential amp.        0.0830 Ry
        Total length         46.3494 bohr
 

     total cpu time spent up to now is     1728.2 secs

     total energy              =   -3345.20699911 Ry
     estimated scf accuracy    <       0.00120317 Ry

     total magnetization       =     1.09 Bohr mag/cell
     absolute magnetization    =     1.23 Bohr mag/cell

     iteration # 48     ecut=    36.75 Ry     beta= 0.05
     Davidson diagonalization with overlap
     c_bands:  2 eigenvalues not converged
     ethr =  3.05E-07,  avg # of iterations =  7.8

     negative rho (up, down):  1.075E-02 1.103E-02
 
     Adding external electric field

     Computed dipole along edir(3) : 
        Dipole               -0.4657 Ry au,         -1.1837 Debye
        Dipole field         -0.0009 Ry au, 
 
        Potential amp.        0.0815 Ry
        Total length         46.3494 bohr
 
 
     Adding external electric field

     Computed dipole along edir(3) : 
        Dipole               -0.4657 Ry au,         -1.1837 Debye
        Dipole field         -0.0009 Ry au, 
 
        Potential amp.        0.0815 Ry
        Total length         46.3494 bohr
 

     total cpu time spent up to now is     1757.3 secs

     total energy              =   -3345.20724296 Ry
     estimated scf accuracy    <       0.00086590 Ry

     total magnetization       =     1.10 Bohr mag/cell
     absolute magnetization    =     1.25 Bohr mag/cell

     iteration # 49     ecut=    36.75 Ry     beta= 0.05
     Davidson diagonalization with overlap
     ethr =  2.20E-07,  avg # of iterations =  3.6

     negative rho (up, down):  1.058E-02 1.089E-02
 
     Adding external electric field

     Computed dipole along edir(3) : 
        Dipole               -0.4619 Ry au,         -1.1741 Debye
        Dipole field         -0.0009 Ry au, 
 
        Potential amp.        0.0808 Ry
        Total length         46.3494 bohr
 
 
     Adding external electric field

     Computed dipole along edir(3) : 
        Dipole               -0.4619 Ry au,         -1.1741 Debye
        Dipole field         -0.0009 Ry au, 
 
        Potential amp.        0.0808 Ry
        Total length         46.3494 bohr
 

     total cpu time spent up to now is     1781.4 secs

     total energy              =   -3345.20768448 Ry
     estimated scf accuracy    <       0.00086248 Ry

     total magnetization       =     1.11 Bohr mag/cell
     absolute magnetization    =     1.27 Bohr mag/cell

     iteration # 50     ecut=    36.75 Ry     beta= 0.05
     Davidson diagonalization with overlap
     ethr =  2.19E-07,  avg # of iterations =  7.5

     negative rho (up, down):  1.061E-02 1.092E-02
 
     Adding external electric field

     Computed dipole along edir(3) : 
        Dipole               -0.4558 Ry au,         -1.1586 Debye
        Dipole field         -0.0009 Ry au, 
 
        Potential amp.        0.0797 Ry
        Total length         46.3494 bohr
 
 
     Adding external electric field

     Computed dipole along edir(3) : 
        Dipole               -0.4558 Ry au,         -1.1586 Debye
        Dipole field         -0.0009 Ry au, 
 
        Potential amp.        0.0797 Ry
        Total length         46.3494 bohr
 

     total cpu time spent up to now is     1808.8 secs

     total energy              =   -3345.20786843 Ry
     estimated scf accuracy    <       0.00034827 Ry

     total magnetization       =     1.14 Bohr mag/cell
     absolute magnetization    =     1.32 Bohr mag/cell

     iteration # 51     ecut=    36.75 Ry     beta= 0.05
     Davidson diagonalization with overlap
     c_bands:  1 eigenvalues not converged
     c_bands:  2 eigenvalues not converged
     ethr =  8.84E-08,  avg # of iterations =  7.3

     negative rho (up, down):  1.059E-02 1.091E-02
 
     Adding external electric field

     Computed dipole along edir(3) : 
        Dipole               -0.4511 Ry au,         -1.1466 Debye
        Dipole field         -0.0009 Ry au, 
 
        Potential amp.        0.0789 Ry
        Total length         46.3494 bohr
 
 
     Adding external electric field

     Computed dipole along edir(3) : 
        Dipole               -0.4511 Ry au,         -1.1466 Debye
        Dipole field         -0.0009 Ry au, 
 
        Potential amp.        0.0789 Ry
        Total length         46.3494 bohr
 

     total cpu time spent up to now is     1835.2 secs

     total energy              =   -3345.20797754 Ry
     estimated scf accuracy    <       0.00019264 Ry

     total magnetization       =     1.14 Bohr mag/cell
     absolute magnetization    =     1.32 Bohr mag/cell

     iteration # 52     ecut=    36.75 Ry     beta= 0.05
     Davidson diagonalization with overlap
     ethr =  4.89E-08,  avg # of iterations =  6.0

     negative rho (up, down):  1.054E-02 1.089E-02
 
     Adding external electric field

     Computed dipole along edir(3) : 
        Dipole               -0.4437 Ry au,         -1.1278 Debye
        Dipole field         -0.0008 Ry au, 
 
        Potential amp.        0.0776 Ry
        Total length         46.3494 bohr
 
 
     Adding external electric field

     Computed dipole along edir(3) : 
        Dipole               -0.4437 Ry au,         -1.1278 Debye
        Dipole field         -0.0008 Ry au, 
 
        Potential amp.        0.0776 Ry
        Total length         46.3494 bohr
 

     total cpu time spent up to now is     1859.2 secs

     total energy              =   -3345.20815500 Ry
     estimated scf accuracy    <       0.00015934 Ry

     total magnetization       =     1.15 Bohr mag/cell
     absolute magnetization    =     1.34 Bohr mag/cell

     iteration # 53     ecut=    36.75 Ry     beta= 0.05
     Davidson diagonalization with overlap
     ethr =  4.04E-08,  avg # of iterations =  7.7

     negative rho (up, down):  1.046E-02 1.081E-02
 
     Adding external electric field

     Computed dipole along edir(3) : 
        Dipole               -0.4439 Ry au,         -1.1284 Debye
        Dipole field         -0.0008 Ry au, 
 
        Potential amp.        0.0777 Ry
        Total length         46.3494 bohr
 
 
     Adding external electric field

     Computed dipole along edir(3) : 
        Dipole               -0.4439 Ry au,         -1.1284 Debye
        Dipole field         -0.0008 Ry au, 
 
        Potential amp.        0.0777 Ry
        Total length         46.3494 bohr
 

     total cpu time spent up to now is     1892.7 secs

     total energy              =   -3345.20822751 Ry
     estimated scf accuracy    <       0.00017496 Ry

     total magnetization       =     1.18 Bohr mag/cell
     absolute magnetization    =     1.39 Bohr mag/cell

     iteration # 54     ecut=    36.75 Ry     beta= 0.05
     Davidson diagonalization with overlap
     ethr =  4.04E-08,  avg # of iterations =  4.0

     negative rho (up, down):  1.035E-02 1.072E-02
 
     Adding external electric field

     Computed dipole along edir(3) : 
        Dipole               -0.4420 Ry au,         -1.1234 Debye
        Dipole field         -0.0008 Ry au, 
 
        Potential amp.        0.0773 Ry
        Total length         46.3494 bohr
 
 
     Adding external electric field

     Computed dipole along edir(3) : 
        Dipole               -0.4420 Ry au,         -1.1234 Debye
        Dipole field         -0.0008 Ry au, 
 
        Potential amp.        0.0773 Ry
        Total length         46.3494 bohr
 

     total cpu time spent up to now is     1914.4 secs

     total energy              =   -3345.20827349 Ry
     estimated scf accuracy    <       0.00009572 Ry

     total magnetization       =     1.19 Bohr mag/cell
     absolute magnetization    =     1.40 Bohr mag/cell

     iteration # 55     ecut=    36.75 Ry     beta= 0.05
     Davidson diagonalization with overlap
     c_bands:  1 eigenvalues not converged
     ethr =  2.43E-08,  avg # of iterations =  7.8

     negative rho (up, down):  1.037E-02 1.074E-02
 
     Adding external electric field

     Computed dipole along edir(3) : 
        Dipole               -0.4412 Ry au,         -1.1214 Debye
        Dipole field         -0.0008 Ry au, 
 
        Potential amp.        0.0772 Ry
        Total length         46.3494 bohr
 
 
     Adding external electric field

     Computed dipole along edir(3) : 
        Dipole               -0.4412 Ry au,         -1.1214 Debye
        Dipole field         -0.0008 Ry au, 
 
        Potential amp.        0.0772 Ry
        Total length         46.3494 bohr
 

     total cpu time spent up to now is     1951.3 secs

     total energy              =   -3345.20830417 Ry
     estimated scf accuracy    <       0.00015670 Ry

     total magnetization       =     1.20 Bohr mag/cell
     absolute magnetization    =     1.44 Bohr mag/cell

     iteration # 56     ecut=    36.75 Ry     beta= 0.05
     Davidson diagonalization with overlap
     ethr =  2.43E-08,  avg # of iterations =  4.8

     negative rho (up, down):  1.037E-02 1.073E-02
 
     Adding external electric field

     Computed dipole along edir(3) : 
        Dipole               -0.4407 Ry au,         -1.1202 Debye
        Dipole field         -0.0008 Ry au, 
 
        Potential amp.        0.0771 Ry
        Total length         46.3494 bohr
 
 
     Adding external electric field

     Computed dipole along edir(3) : 
        Dipole               -0.4407 Ry au,         -1.1202 Debye
        Dipole field         -0.0008 Ry au, 
 
        Potential amp.        0.0771 Ry
        Total length         46.3494 bohr
 

     total cpu time spent up to now is     1975.8 secs

     total energy              =   -3345.20831235 Ry
     estimated scf accuracy    <       0.00009067 Ry

     total magnetization       =     1.20 Bohr mag/cell
     absolute magnetization    =     1.44 Bohr mag/cell

     iteration # 57     ecut=    36.75 Ry     beta= 0.05
     Davidson diagonalization with overlap
     ethr =  2.30E-08,  avg # of iterations =  4.0

     negative rho (up, down):  1.037E-02 1.075E-02
 
     Adding external electric field

     Computed dipole along edir(3) : 
        Dipole               -0.4422 Ry au,         -1.1241 Debye
        Dipole field         -0.0008 Ry au, 
 
        Potential amp.        0.0774 Ry
        Total length         46.3494 bohr
 
 
     Adding external electric field

     Computed dipole along edir(3) : 
        Dipole               -0.4422 Ry au,         -1.1241 Debye
        Dipole field         -0.0008 Ry au, 
 
        Potential amp.        0.0774 Ry
        Total length         46.3494 bohr
 

     total cpu time spent up to now is     1997.0 secs

     total energy              =   -3345.20831523 Ry
     estimated scf accuracy    <       0.00005869 Ry

     total magnetization       =     1.21 Bohr mag/cell
     absolute magnetization    =     1.45 Bohr mag/cell

     iteration # 58     ecut=    36.75 Ry     beta= 0.05
     Davidson diagonalization with overlap
     ethr =  1.49E-08,  avg # of iterations =  5.3

     negative rho (up, down):  1.034E-02 1.073E-02
 
     Adding external electric field

     Computed dipole along edir(3) : 
        Dipole               -0.4430 Ry au,         -1.1261 Debye
        Dipole field         -0.0008 Ry au, 
 
        Potential amp.        0.0775 Ry
        Total length         46.3494 bohr
 
 
     Adding external electric field

     Computed dipole along edir(3) : 
        Dipole               -0.4430 Ry au,         -1.1261 Debye
        Dipole field         -0.0008 Ry au, 
 
        Potential amp.        0.0775 Ry
        Total length         46.3494 bohr
 

     total cpu time spent up to now is     2021.0 secs

     total energy              =   -3345.20835497 Ry
     estimated scf accuracy    <       0.00004203 Ry

     total magnetization       =     1.21 Bohr mag/cell
     absolute magnetization    =     1.45 Bohr mag/cell

     iteration # 59     ecut=    36.75 Ry     beta= 0.05
     Davidson diagonalization with overlap
     ethr =  1.07E-08,  avg # of iterations =  7.5

     negative rho (up, down):  1.031E-02 1.072E-02
 
     Adding external electric field

     Computed dipole along edir(3) : 
        Dipole               -0.4410 Ry au,         -1.1208 Debye
        Dipole field         -0.0008 Ry au, 
 
        Potential amp.        0.0771 Ry
        Total length         46.3494 bohr
 
 
     Adding external electric field

     Computed dipole along edir(3) : 
        Dipole               -0.4410 Ry au,         -1.1208 Debye
        Dipole field         -0.0008 Ry au, 
 
        Potential amp.        0.0771 Ry
        Total length         46.3494 bohr
 

     total cpu time spent up to now is     2052.0 secs

     total energy              =   -3345.20837754 Ry
     estimated scf accuracy    <       0.00004639 Ry

     total magnetization       =     1.24 Bohr mag/cell
     absolute magnetization    =     1.50 Bohr mag/cell

     iteration # 60     ecut=    36.75 Ry     beta= 0.05
     Davidson diagonalization with overlap
     ethr =  1.07E-08,  avg # of iterations =  5.5

     negative rho (up, down):  1.028E-02 1.069E-02
 
     Adding external electric field

     Computed dipole along edir(3) : 
        Dipole               -0.4389 Ry au,         -1.1157 Debye
        Dipole field         -0.0008 Ry au, 
 
        Potential amp.        0.0768 Ry
        Total length         46.3494 bohr
 
 
     Adding external electric field

     Computed dipole along edir(3) : 
        Dipole               -0.4389 Ry au,         -1.1157 Debye
        Dipole field         -0.0008 Ry au, 
 
        Potential amp.        0.0768 Ry
        Total length         46.3494 bohr
 

     total cpu time spent up to now is     2075.8 secs

     total energy              =   -3345.20837581 Ry
     estimated scf accuracy    <       0.00003315 Ry

     total magnetization       =     1.24 Bohr mag/cell
     absolute magnetization    =     1.51 Bohr mag/cell

     iteration # 61     ecut=    36.75 Ry     beta= 0.05
     Davidson diagonalization with overlap
     ethr =  8.41E-09,  avg # of iterations =  6.6

     negative rho (up, down):  1.027E-02 1.069E-02
 
     Adding external electric field

     Computed dipole along edir(3) : 
        Dipole               -0.4401 Ry au,         -1.1185 Debye
        Dipole field         -0.0008 Ry au, 
 
        Potential amp.        0.0770 Ry
        Total length         46.3494 bohr
 
 
     Adding external electric field

     Computed dipole along edir(3) : 
        Dipole               -0.4401 Ry au,         -1.1185 Debye
        Dipole field         -0.0008 Ry au, 
 
        Potential amp.        0.0770 Ry
        Total length         46.3494 bohr
 

     total cpu time spent up to now is     2106.5 secs

     total energy              =   -3345.20839470 Ry
     estimated scf accuracy    <       0.00004541 Ry

     total magnetization       =     1.24 Bohr mag/cell
     absolute magnetization    =     1.51 Bohr mag/cell

     iteration # 62     ecut=    36.75 Ry     beta= 0.05
     Davidson diagonalization with overlap
     ethr =  8.41E-09,  avg # of iterations =  2.1

     negative rho (up, down):  1.026E-02 1.070E-02
 
     Adding external electric field

     Computed dipole along edir(3) : 
        Dipole               -0.4428 Ry au,         -1.1254 Debye
        Dipole field         -0.0008 Ry au, 
 
        Potential amp.        0.0775 Ry
        Total length         46.3494 bohr
 
 
     Adding external electric field

     Computed dipole along edir(3) : 
        Dipole               -0.4428 Ry au,         -1.1254 Debye
        Dipole field         -0.0008 Ry au, 
 
[...]
     c_bands:  1 eigenvalues not converged
     c_bands:  1 eigenvalues not converged
     c_bands:  1 eigenvalues not converged
     c_bands:  1 eigenvalues not converged
     c_bands:  2 eigenvalues not converged
     c_bands:  1 eigenvalues not converged
     ethr =  8.48E-11,  avg # of iterations = 17.8

     negative rho (up, down):  1.037E-02 1.053E-02
 
     Adding external electric field

     Computed dipole along edir(3) : 
        Dipole               -0.4411 Ry au,         -1.1212 Debye
        Dipole field         -0.0008 Ry au, 
 
        Potential amp.        0.0772 Ry
        Total length         46.3494 bohr
 
 
     Adding external electric field

     Computed dipole along edir(3) : 
        Dipole               -0.4411 Ry au,         -1.1212 Debye
        Dipole field         -0.0008 Ry au, 
 
        Potential amp.        0.0772 Ry
        Total length         46.3494 bohr
 

     total cpu time spent up to now is    42100.0 secs

     total energy              =   -3345.20845712 Ry
     estimated scf accuracy    <       0.00000698 Ry

     total magnetization       =     1.04 Bohr mag/cell
     absolute magnetization    =     1.71 Bohr mag/cell

     iteration #722     ecut=    36.75 Ry     beta= 0.05
     Davidson diagonalization with overlap
     ethr =  8.48E-11,  avg # of iterations =  1.3

     negative rho (up, down):  1.037E-02 1.053E-02
 
     Adding external electric field

     Computed dipole along edir(3) : 
        Dipole               -0.4411 Ry au,         -1.1211 Debye
        Dipole field         -0.0008 Ry au, 
 
        Potential amp.        0.0772 Ry
        Total length         46.3494 bohr
 
 
     Adding external electric field

     Computed dipole along edir(3) : 
        Dipole               -0.4411 Ry au,         -1.1211 Debye
        Dipole field         -0.0008 Ry au, 
 
        Potential amp.        0.0772 Ry
        Total length         46.3494 bohr
 

     total cpu time spent up to now is    42130.5 secs

     total energy              =   -3345.20845731 Ry
     estimated scf accuracy    <       0.00000701 Ry

     total magnetization       =     1.04 Bohr mag/cell
     absolute magnetization    =     1.71 Bohr mag/cell

     iteration #723     ecut=    36.75 Ry     beta= 0.05
     Davidson diagonalization with overlap
     ethr =  8.48E-11,  avg # of iterations =  1.0

     negative rho (up, down):  1.035E-02 1.055E-02
 
     Adding external electric field

     Computed dipole along edir(3) : 
        Dipole               -0.4403 Ry au,         -1.1192 Debye
        Dipole field         -0.0008 Ry au, 
 
        Potential amp.        0.0770 Ry
        Total length         46.3494 bohr
 
 
     Adding external electric field

     Computed dipole along edir(3) : 
        Dipole               -0.4403 Ry au,         -1.1192 Debye
        Dipole field         -0.0008 Ry au, 
 
        Potential amp.        0.0770 Ry
        Total length         46.3494 bohr
 

     total cpu time spent up to now is    42155.0 secs

     total energy              =   -3345.20845671 Ry
     estimated scf accuracy    <       0.00000730 Ry

     total magnetization       =     1.04 Bohr mag/cell
     absolute magnetization    =     1.71 Bohr mag/cell

     iteration #724     ecut=    36.75 Ry     beta= 0.05
     Davidson diagonalization with overlap
     ethr =  8.48E-11,  avg # of iterations = 14.1

     negative rho (up, down):  1.034E-02 1.055E-02
 
     Adding external electric field

     Computed dipole along edir(3) : 
        Dipole               -0.4401 Ry au,         -1.1187 Debye
        Dipole field         -0.0008 Ry au, 
 
        Potential amp.        0.0770 Ry
        Total length         46.3494 bohr
 
 
     Adding external electric field

     Computed dipole along edir(3) : 
        Dipole               -0.4401 Ry au,         -1.1187 Debye
        Dipole field         -0.0008 Ry au, 
 
        Potential amp.        0.0770 Ry
        Total length         46.3494 bohr
 

     total cpu time spent up to now is    42222.0 secs

     total energy              =   -3345.20846307 Ry
     estimated scf accuracy    <       0.00000293 Ry

     total magnetization       =     1.07 Bohr mag/cell
     absolute magnetization    =     1.74 Bohr mag/cell

     iteration #725     ecut=    36.75 Ry     beta= 0.05
     Davidson diagonalization with overlap
     ethr =  8.48E-11,  avg # of iterations =  8.0

     negative rho (up, down):  1.035E-02 1.054E-02
 
     Adding external electric field

     Computed dipole along edir(3) : 
        Dipole               -0.4404 Ry au,         -1.1194 Debye
        Dipole field         -0.0008 Ry au, 
 
        Potential amp.        0.0770 Ry
        Total length         46.3494 bohr
 
 
     Adding external electric field

     Computed dipole along edir(3) : 
        Dipole               -0.4404 Ry au,         -1.1194 Debye
        Dipole field         -0.0008 Ry au, 
 
        Potential amp.        0.0770 Ry
        Total length         46.3494 bohr
 

     total cpu time spent up to now is    42265.8 secs

     total energy              =   -3345.20846074 Ry
     estimated scf accuracy    <       0.00000240 Ry

     total magnetization       =     1.07 Bohr mag/cell
     absolute magnetization    =     1.74 Bohr mag/cell

     iteration #726     ecut=    36.75 Ry     beta= 0.05
     Davidson diagonalization with overlap
     ethr =  8.48E-11,  avg # of iterations = 10.7

     negative rho (up, down):  1.035E-02 1.055E-02
 
     Adding external electric field

     Computed dipole along edir(3) : 
        Dipole               -0.4403 Ry au,         -1.1192 Debye
        Dipole field         -0.0008 Ry au, 
 
        Potential amp.        0.0770 Ry
        Total length         46.3494 bohr
 
 
     Adding external electric field

     Computed dipole along edir(3) : 
        Dipole               -0.4403 Ry au,         -1.1192 Debye
        Dipole field         -0.0008 Ry au, 
 
        Potential amp.        0.0770 Ry
        Total length         46.3494 bohr
 

     total cpu time spent up to now is    42317.4 secs

     total energy              =   -3345.20846234 Ry
     estimated scf accuracy    <       0.00000348 Ry

     total magnetization       =     1.06 Bohr mag/cell
     absolute magnetization    =     1.73 Bohr mag/cell

     iteration #727     ecut=    36.75 Ry     beta= 0.05
     Davidson diagonalization with overlap
     ethr =  8.48E-11,  avg # of iterations =  6.8

     negative rho (up, down):  1.033E-02 1.056E-02
 
     Adding external electric field

     Computed dipole along edir(3) : 
        Dipole               -0.4398 Ry au,         -1.1178 Debye
        Dipole field         -0.0008 Ry au, 
 
        Potential amp.        0.0769 Ry
        Total length         46.3494 bohr
 
 
     Adding external electric field

     Computed dipole along edir(3) : 
        Dipole               -0.4398 Ry au,         -1.1178 Debye
        Dipole field         -0.0008 Ry au, 
 
        Potential amp.        0.0769 Ry
        Total length         46.3494 bohr
 

     total cpu time spent up to now is    42355.7 secs

     total energy              =   -3345.20846173 Ry
     estimated scf accuracy    <       0.00000278 Ry

     total magnetization       =     1.07 Bohr mag/cell
     absolute magnetization    =     1.74 Bohr mag/cell

     iteration #728     ecut=    36.75 Ry     beta= 0.05
     Davidson diagonalization with overlap
     ethr =  8.48E-11,  avg # of iterations = 13.1

     negative rho (up, down):  1.028E-02 1.061E-02
 
     Adding external electric field

     Computed dipole along edir(3) : 
        Dipole               -0.4381 Ry au,         -1.1135 Debye
        Dipole field         -0.0008 Ry au, 
 
        Potential amp.        0.0766 Ry
        Total length         46.3494 bohr
 
 
     Adding external electric field

     Computed dipole along edir(3) : 
        Dipole               -0.4381 Ry au,         -1.1135 Debye
        Dipole field         -0.0008 Ry au, 
 
        Potential amp.        0.0766 Ry
        Total length         46.3494 bohr
 

     total cpu time spent up to now is    42422.6 secs

     total energy              =   -3345.20843330 Ry
     estimated scf accuracy    <       0.00000178 Ry

     total magnetization       =     1.09 Bohr mag/cell
     absolute magnetization    =     1.76 Bohr mag/cell

     iteration #729     ecut=    36.75 Ry     beta= 0.05
     Davidson diagonalization with overlap
     c_bands:  1 eigenvalues not converged
     c_bands:  1 eigenvalues not converged
     c_bands:  2 eigenvalues not converged
     c_bands:  1 eigenvalues not converged
     c_bands:  1 eigenvalues not converged
     c_bands:  1 eigenvalues not converged
     c_bands:  2 eigenvalues not converged
     c_bands:  2 eigenvalues not converged
     c_bands:  1 eigenvalues not converged
     ethr =  8.48E-11,  avg # of iterations = 17.6

     negative rho (up, down):  1.033E-02 1.056E-02
 
     Adding external electric field

     Computed dipole along edir(3) : 
        Dipole               -0.4397 Ry au,         -1.1177 Debye
        Dipole field         -0.0008 Ry au, 
 
        Potential amp.        0.0769 Ry
        Total length         46.3494 bohr
 
 
     Adding external electric field

     Computed dipole along edir(3) : 
        Dipole               -0.4397 Ry au,         -1.1177 Debye
        Dipole field         -0.0008 Ry au, 
 
        Potential amp.        0.0769 Ry
        Total length         46.3494 bohr
 

     total cpu time spent up to now is    42501.0 secs

     total energy              =   -3345.20842699 Ry
     estimated scf accuracy    <       0.00000578 Ry

     total magnetization       =     1.18 Bohr mag/cell
     absolute magnetization    =     1.84 Bohr mag/cell

     iteration #730     ecut=    36.75 Ry     beta= 0.05
     Davidson diagonalization with overlap
     c_bands:  1 eigenvalues not converged
     c_bands:  1 eigenvalues not converged
     c_bands:  1 eigenvalues not converged
     c_bands:  1 eigenvalues not converged
     c_bands:  1 eigenvalues not converged
     c_bands:  1 eigenvalues not converged
     c_bands:  1 eigenvalues not converged
     c_bands:  1 eigenvalues not converged
     ethr =  8.48E-11,  avg # of iterations = 17.5

     negative rho (up, down):  1.035E-02 1.054E-02
 
     Adding external electric field

     Computed dipole along edir(3) : 
        Dipole               -0.4406 Ry au,         -1.1200 Debye
        Dipole field         -0.0008 Ry au, 
 
        Potential amp.        0.0771 Ry
        Total length         46.3494 bohr
 
 
     Adding external electric field

     Computed dipole along edir(3) : 
        Dipole               -0.4406 Ry au,         -1.1200 Debye
        Dipole field         -0.0008 Ry au, 
 
        Potential amp.        0.0771 Ry
        Total length         46.3494 bohr
 

     total cpu time spent up to now is    42585.1 secs

     total energy              =   -3345.20845168 Ry
     estimated scf accuracy    <       0.00000140 Ry

     total magnetization       =     1.09 Bohr mag/cell
     absolute magnetization    =     1.76 Bohr mag/cell

     iteration #731     ecut=    36.75 Ry     beta= 0.05
     Davidson diagonalization with overlap
     c_bands:  2 eigenvalues not converged
     ethr =  8.48E-11,  avg # of iterations = 15.4

     negative rho (up, down):  1.036E-02 1.054E-02
 
     Adding external electric field

     Computed dipole along edir(3) : 
        Dipole               -0.4408 Ry au,         -1.1203 Debye
        Dipole field         -0.0008 Ry au, 
 
        Potential amp.        0.0771 Ry
        Total length         46.3494 bohr
 
 
     Adding external electric field

     Computed dipole along edir(3) : 
        Dipole               -0.4408 Ry au,         -1.1203 Debye
        Dipole field         -0.0008 Ry au, 
 
        Potential amp.        0.0771 Ry
        Total length         46.3494 bohr
 

     total cpu time spent up to now is    42654.9 secs

     total energy              =   -3345.20846007 Ry
     estimated scf accuracy    <       0.00000352 Ry

     total magnetization       =     1.06 Bohr mag/cell
     absolute magnetization    =     1.73 Bohr mag/cell

     iteration #732     ecut=    36.75 Ry     beta= 0.05
     Davidson diagonalization with overlap
     ethr =  8.48E-11,  avg # of iterations =  7.2

     negative rho (up, down):  1.036E-02 1.053E-02
 
     Adding external electric field

     Computed dipole along edir(3) : 
        Dipole               -0.4409 Ry au,         -1.1207 Debye
        Dipole field         -0.0008 Ry au, 
 
        Potential amp.        0.0771 Ry
        Total length         46.3494 bohr
 
 
     Adding external electric field

     Computed dipole along edir(3) : 
        Dipole               -0.4409 Ry au,         -1.1207 Debye
        Dipole field         -0.0008 Ry au, 
 
        Potential amp.        0.0771 Ry
        Total length         46.3494 bohr
 

     total cpu time spent up to now is    42686.3 secs

     total energy              =   -3345.20845870 Ry
     estimated scf accuracy    <       0.00000409 Ry

     total magnetization       =     1.05 Bohr mag/cell
     absolute magnetization    =     1.72 Bohr mag/cell

     iteration #733     ecut=    36.75 Ry     beta= 0.05
     Davidson diagonalization with overlap
     ethr =  8.48E-11,  avg # of iterations =  7.8

     negative rho (up, down):  1.037E-02 1.053E-02
 
     Adding external electric field

     Computed dipole along edir(3) : 
        Dipole               -0.4410 Ry au,         -1.1210 Debye
        Dipole field         -0.0008 Ry au, 
 
        Potential amp.        0.0771 Ry
        Total length         46.3494 bohr
 
 
     Adding external electric field

     Computed dipole along edir(3) : 
        Dipole               -0.4410 Ry au,         -1.1210 Debye
        Dipole field         -0.0008 Ry au, 
 
        Potential amp.        0.0771 Ry
        Total length         46.3494 bohr
 

     total cpu time spent up to now is    42732.5 secs

     total energy              =   -3345.20845825 Ry
     estimated scf accuracy    <       0.00000524 Ry

     total magnetization       =     1.04 Bohr mag/cell
     absolute magnetization    =     1.72 Bohr mag/cell

     iteration #734     ecut=    36.75 Ry     beta= 0.05
     Davidson diagonalization with overlap
     ethr =  8.48E-11,  avg # of iterations =  6.1

     negative rho (up, down):  1.036E-02 1.053E-02
 
     Adding external electric field

     Computed dipole along edir(3) : 
        Dipole               -0.4410 Ry au,         -1.1209 Debye
        Dipole field         -0.0008 Ry au, 
 
        Potential amp.        0.0771 Ry
        Total length         46.3494 bohr
 
 
     Adding external electric field

     Computed dipole along edir(3) : 
        Dipole               -0.4410 Ry au,         -1.1209 Debye
        Dipole field         -0.0008 Ry au, 
 
        Potential amp.        0.0771 Ry
        Total length         46.3494 bohr
 

     total cpu time spent up to now is    42755.9 secs

     total energy              =   -3345.20845856 Ry
     estimated scf accuracy    <       0.00000589 Ry

     total magnetization       =     1.04 Bohr mag/cell
     absolute magnetization    =     1.72 Bohr mag/cell

     iteration #735     ecut=    36.75 Ry     beta= 0.05
     Davidson diagonalization with overlap
     ethr =  8.48E-11,  avg # of iterations =  1.1

     negative rho (up, down):  1.037E-02 1.053E-02
 
     Adding external electric field

     Computed dipole along edir(3) : 
        Dipole               -0.4410 Ry au,         -1.1209 Debye
        Dipole field         -0.0008 Ry au, 
 
        Potential amp.        0.0771 Ry
        Total length         46.3494 bohr
 
 
     Adding external electric field

     Computed dipole along edir(3) : 
        Dipole               -0.4410 Ry au,         -1.1209 Debye
        Dipole field         -0.0008 Ry au, 
 
        Potential amp.        0.0771 Ry
        Total length         46.3494 bohr
 

     total cpu time spent up to now is    42773.6 secs

     total energy              =   -3345.20845837 Ry
     estimated scf accuracy    <       0.00000571 Ry

     total magnetization       =     1.04 Bohr mag/cell
     absolute magnetization    =     1.72 Bohr mag/cell

     iteration #736     ecut=    36.75 Ry     beta= 0.05
     Davidson diagonalization with overlap
     ethr =  8.48E-11,  avg # of iterations =  1.0

     negative rho (up, down):  1.037E-02 1.052E-02
 
     Adding external electric field

     Computed dipole along edir(3) : 
        Dipole               -0.4413 Ry au,         -1.1216 Debye
        Dipole field         -0.0008 Ry au, 
 
        Potential amp.        0.0772 Ry
        Total length         46.3494 bohr
 
 
     Adding external electric field

     Computed dipole along edir(3) : 
        Dipole               -0.4413 Ry au,         -1.1216 Debye
        Dipole field         -0.0008 Ry au, 
 
        Potential amp.        0.0772 Ry
        Total length         46.3494 bohr
 

     total cpu time spent up to now is    42792.1 secs

     total energy              =   -3345.20845545 Ry
     estimated scf accuracy    <       0.00000589 Ry

     total magnetization       =     1.04 Bohr mag/cell
     absolute magnetization    =     1.72 Bohr mag/cell

     iteration #737     ecut=    36.75 Ry     beta= 0.05
     Davidson diagonalization with overlap
     ethr =  8.48E-11,  avg # of iterations = 10.6

     negative rho (up, down):  1.038E-02 1.051E-02
 
     Adding external electric field

     Computed dipole along edir(3) : 
        Dipole               -0.4416 Ry au,         -1.1224 Debye
        Dipole field         -0.0008 Ry au, 
 
        Potential amp.        0.0773 Ry
        Total length         46.3494 bohr
 
 
     Adding external electric field

     Computed dipole along edir(3) : 
        Dipole               -0.4416 Ry au,         -1.1224 Debye
        Dipole field         -0.0008 Ry au, 
 
        Potential amp.        0.0773 Ry
        Total length         46.3494 bohr
 

     total cpu time spent up to now is    42832.3 secs

     total energy              =   -3345.20845160 Ry
     estimated scf accuracy    <       0.00000816 Ry

     total magnetization       =     1.03 Bohr mag/cell
     absolute magnetization    =     1.71 Bohr mag/cell

     iteration #738     ecut=    36.75 Ry     beta= 0.05
     Davidson diagonalization with overlap
     ethr =  8.48E-11,  avg # of iterations = 10.4

     negative rho (up, down):  1.030E-02 1.060E-02
 
     Adding external electric field

     Computed dipole along edir(3) : 
        Dipole               -0.4385 Ry au,         -1.1145 Debye
        Dipole field         -0.0008 Ry au, 
 
        Potential amp.        0.0767 Ry
        Total length         46.3494 bohr
 
 
     Adding external electric field

     Computed dipole along edir(3) : 
        Dipole               -0.4385 Ry au,         -1.1145 Debye
        Dipole field         -0.0008 Ry au, 
 
        Potential amp.        0.0767 Ry
        Total length         46.3494 bohr
 

     total cpu time spent up to now is    42869.9 secs

     total energy              =   -3345.20836689 Ry
     estimated scf accuracy    <       0.00001242 Ry

     total magnetization       =     1.02 Bohr mag/cell
     absolute magnetization    =     1.70 Bohr mag/cell

     iteration #739     ecut=    36.75 Ry     beta= 0.05
     Davidson diagonalization with overlap
     c_bands:  1 eigenvalues not converged
     c_bands:  1 eigenvalues not converged
     c_bands:  2 eigenvalues not converged
     c_bands:  1 eigenvalues not converged
     c_bands:  1 eigenvalues not converged
     c_bands:  2 eigenvalues not converged
     c_bands:  1 eigenvalues not converged
     c_bands:  2 eigenvalues not converged
     c_bands:  1 eigenvalues not converged
     c_bands:  1 eigenvalues not converged
