
     Program PWSCF v.6.7GPU starts on 16Feb2022 at  0:33:58 

     This program is part of the open-source Quantum ESPRESSO suite
     for quantum simulation of materials; please cite
         "P. Giannozzi et al., J. Phys.:Condens. Matter 21 395502 (2009);
         "P. Giannozzi et al., J. Phys.:Condens. Matter 29 465901 (2017);
         "P. Giannozzi et al., J. Chem. Phys. 152 154105 (2020);
          URL http://www.quantum-espresso.org", 
     in publications or presentations arising from this work. More details at
     http://www.quantum-espresso.org/quote

     Parallel version (MPI), running on    16 processors

     MPI processes distributed on     1 nodes
     R & G space division:  proc/nbgrp/npool/nimage =      16
     Reading input from /storage/coda1/p-amedford6/0/bchen380/C22/N2_C/qe_3983490.sched-torque.pace.gatech.edu/pw.inp
Warning: card &CELL ignored
Warning: card   CELL_DYNAMICS='IPI', ignored
Warning: card / ignored

     Current dimensions of program PWSCF are:
     Max number of different atomic species (ntypx) = 10
     Max number of k-points (npk) =  40000
     Max angular momentum in pseudopotentials (lmaxx) =  3
     Message from routine cell_base_init:
     DEPRECATED: use true lattice parameter, not A to a.u. conversion factor
     file O.UPF: wavefunction(s)  2P renormalized
     file C.UPF: wavefunction(s)  2S 2P renormalized

     **************************************************************************
     Initializing libbeef V0.1.2 with the BEEF-vdW functional.
     Citation: Wellendorff et al., PRB 85, 235149 (2012).
     **************************************************************************


     IMPORTANT: XC functional enforced from input :
     Exchange-correlation= BEEF-VDW
                           (   1   4  43  14   2   0   0)
     Any further DFT definition will be discarded
     Please, verify this is what you really want


     Subspace diagonalization in iterative solution of the eigenvalue problem:
     one sub-group per band group will be used
     scalapack distributed-memory algorithm (size of sub-group:  4*  4 procs)

  @ DRIVER MODE: Connecting to 
 qe_1064200_3983490.sched-torque.pace.gatech.edulfr0aduk_scratch
  using UNIX socket
  @ DRIVER MODE: Message from server: STATUS
  @ DRIVER MODE: Message from server: INIT
  @ DRIVER MODE: Receiving replica           0          -1
  @ DRIVER MODE: Receiving encoded integer          25
  @ DRIVER MODE:  SCF:  T  FORCE:  T  STRESS:  F  VC:  F  ENSEMBLE:  F
  @ DRIVER MODE:  SCF:  T  FORCE:  T  STRESS:  F  VC:  F  ENSEMBLE:  F
 
     Parallelization info
     --------------------
     sticks:   dense  smooth     PW     G-vecs:    dense   smooth      PW
     Min         256     102     28                49498    12526    1868
     Max         257     103     29                49510    12535    1881
     Sum        4097    1637    459               792059   200495   30031
 
     Using Slab Decomposition
 


     bravais-lattice index     =            0
     lattice parameter (alat)  =       1.8897  a.u.
     unit-cell volume          =    6658.9804 (a.u.)^3
     number of atoms/cell      =           50
     number of atomic types    =            4
     number of electrons       =       392.00
     number of Kohn-Sham states=          206
     kinetic-energy cutoff     =      36.7493  Ry
     charge density cutoff     =     367.4932  Ry
     scf convergence threshold =      7.3E-08
     mixing beta               =       0.0500
     number of iterations used =            8  plain     mixing
     Exchange-correlation= BEEF-VDW
                           (   1   4  43  14   2   0   0)

     celldm(1)=   1.889726  celldm(2)=   0.000000  celldm(3)=   0.000000
     celldm(4)=   0.000000  celldm(5)=   0.000000  celldm(6)=   0.000000

     crystal axes: (cart. coord. in units of alat)
               a(1) = (   6.579727   0.000000   0.000000 )  
               a(2) = (  -0.000775   5.961596   0.000000 )  
               a(3) = (   0.000000   0.000000  25.155947 )  

     reciprocal axes: (cart. coord. in units 2 pi/alat)
               b(1) = (  0.151982  0.000020  0.000000 )  
               b(2) = (  0.000000  0.167740  0.000000 )  
               b(3) = (  0.000000  0.000000  0.039752 )  


     PseudoPot. # 1 for Ti read from file:
     /storage/coda1/p-amedford6/0/shared/rich_project_chbe-medford/medford-share/data/pseudos_module/espresso/esp_pseudos_old/Ti.UPF
     MD5 check sum: 88a00a6731bd790ddea75d31a80cb452
     Pseudo is Ultrasoft + core correction, Zval = 12.0
     Generated by new atomic code, or converted to UPF format
     Using radial grid of  851 points,  6 beta functions with: 
                l(1) =   0
                l(2) =   0
                l(3) =   1
                l(4) =   1
                l(5) =   2
                l(6) =   2
     Q(r) pseudized with  6 coefficients,  rinner =    1.000   1.000   1.000
                                                       1.000   1.000

     PseudoPot. # 2 for O  read from file:
     /storage/coda1/p-amedford6/0/shared/rich_project_chbe-medford/medford-share/data/pseudos_module/espresso/esp_pseudos_old/O.UPF
     MD5 check sum: 0234752ac141de4415c5fc33072bef88
     Pseudo is Projector augmented-wave + core cor, Zval =  6.0
     Generated using "atomic" code by A. Dal Corso  v.5.0.99 svn rev. 10869
     Shape of augmentation charge: BESSEL
     Using radial grid of 1095 points,  4 beta functions with: 
                l(1) =   0
                l(2) =   0
                l(3) =   1
                l(4) =   1
     Q(r) pseudized with 0 coefficients 


     PseudoPot. # 3 for C  read from file:
     /storage/coda1/p-amedford6/0/shared/rich_project_chbe-medford/medford-share/data/pseudos_module/espresso/esp_pseudos_old/C.UPF
     MD5 check sum: 5d2aebdfa2cae82b50a7e79e9516da0f
     Pseudo is Projector augmented-wave + core cor, Zval =  4.0
     Generated using "atomic" code by A. Dal Corso  v.5.1
     Shape of augmentation charge: PSQ
     Using radial grid of 1073 points,  4 beta functions with: 
                l(1) =   0
                l(2) =   0
                l(3) =   1
                l(4) =   1
     Q(r) pseudized with 0 coefficients 


     PseudoPot. # 4 for N  read from file:
     /storage/coda1/p-amedford6/0/shared/rich_project_chbe-medford/medford-share/data/pseudos_module/espresso/esp_pseudos_old/N.UPF
     MD5 check sum: 16739722b17309cd8fe442a2ace49922
     Pseudo is Ultrasoft + core correction, Zval =  5.0
     Generated using "atomic" code by A. Dal Corso  v.5.1
     Using radial grid of 1085 points,  4 beta functions with: 
                l(1) =   0
                l(2) =   0
                l(3) =   1
                l(4) =   1
     Q(r) pseudized with 0 coefficients 


     atomic species   valence    mass     pseudopotential
        Ti1           12.00    47.86700     Ti( 1.00)
        O1             6.00    15.99900     O ( 1.00)
        C1             4.00    12.01100     C ( 1.00)
        N1             5.00    14.00700     N ( 1.00)

     Starting magnetic structure 
     atomic species   magnetization
        Ti1          0.000
        O1           0.000
        C1           0.000
        N1           0.000

     No symmetry found



   Cartesian axes

     site n.     atom                  positions (alat units)
         1           Ti1 tau(   1) = (   0.0004258   2.9801865   6.0000000  )
         2           Ti1 tau(   2) = (   3.2906075   1.4906267   6.0002472  )
         3           O1  tau(   3) = (   0.0006271   0.0005054   7.9858123  )
         4           O1  tau(   4) = (   3.2906025   0.0005020   7.3038282  )
         5           O1  tau(   5) = (   4.5942328   1.4918067   9.2879030  )
         6           O1  tau(   6) = (   1.9868534   1.4903216   9.2879459  )
         7           Ti1 tau(   7) = (   3.2905683   2.9818392   9.1597947  )
         8           Ti1 tau(   8) = (   0.0009689   1.5052867   9.3302970  )
         9           O1  tau(   9) = (   3.2907689   0.0016648  11.3563317  )
        10           O1  tau(  10) = (   0.0007044   0.0001637  10.5878211  )
        11           O1  tau(  11) = (   1.3004573   1.4911895  12.6196604  )
        12           O1  tau(  12) = (   5.2803146   1.4910465  12.6198809  )
        13           Ti1 tau(  13) = (   0.0003545   2.9813121  12.7572432  )
        14           Ti1 tau(  14) = (   3.2903971   1.4912328  12.5002874  )
        15           O1  tau(  15) = (  -0.0002320   5.9576404  14.5977444  )
        16           O1  tau(  16) = (   3.2901645   0.0058045  13.9855309  )
        17           O1  tau(  17) = (   4.5492778   1.5221801  16.1329724  )
        18           O1  tau(  18) = (   2.0311275   1.5222091  16.1330501  )
        19           Ti1 tau(  19) = (   3.2902041   2.9895352  15.7368220  )
        20           Ti1 tau(  20) = (   0.0001478   1.4235607  15.9669019  )
        21           O1  tau(  21) = (   3.2904802   0.0005063   4.7018136  )
        22           O1  tau(  22) = (   0.0000052   5.9613278  17.1620205  )
        23           O1  tau(  23) = (   1.3043587   1.4918075   6.0039043  )
        24           O1  tau(  24) = (   5.2767064   1.4903225   6.0039473  )
        25           Ti1 tau(  25) = (   0.0000382   5.9609847   6.0000000  )
        26           Ti1 tau(  26) = (   3.2902200   4.4714249   6.0002472  )
        27           O1  tau(  27) = (   0.0002396   2.9813036   7.9858123  )
        28           O1  tau(  28) = (   3.2902150   2.9813002   7.3038282  )
        29           O1  tau(  29) = (   4.5938453   4.4726049   9.2879030  )
        30           O1  tau(  30) = (   1.9864658   4.4711199   9.2879459  )
        31           Ti1 tau(  31) = (   3.2909982   0.0016570   9.1583503  )
        32           Ti1 tau(  32) = (   0.0005865   4.4518293   9.3323505  )
        33           O1  tau(  33) = (   3.2903422   2.9801403  11.3468332  )
        34           O1  tau(  34) = (   0.0003571   2.9798178  10.5649370  )
        35           O1  tau(  35) = (   1.3005412   4.4692167  12.6173387  )
        36           O1  tau(  36) = (   5.2794693   4.4690741  12.6175999  )
        37           Ti1 tau(  37) = (  -0.0000806   5.9612980  12.5816508  )
        38           Ti1 tau(  38) = (   3.2900041   4.4658170  12.4917948  )
        39           O1  tau(  39) = (   0.0004188   2.9814100  14.6485654  )
        40           O1  tau(  40) = (   3.2900918   2.9860882  13.9373905  )
        41           O1  tau(  41) = (   4.5492228   4.4522151  16.1330783  )
        42           O1  tau(  42) = (   2.0303863   4.4519659  16.1333203  )
        43           Ti1 tau(  43) = (   3.2899546   0.0061948  15.7807570  )
        44           Ti1 tau(  44) = (  -0.0001637   4.5606593  15.9768108  )
        45           O1  tau(  45) = (   3.2900926   2.9813045   4.7018136  )
        46           C1  tau(  46) = (   6.5792260   2.9590799  17.8640153  )
        47           O1  tau(  47) = (   1.3039711   4.4726057   6.0039043  )
        48           O1  tau(  48) = (   5.2763189   4.4711207   6.0039473  )
        49           N1  tau(  49) = (   6.3491669   2.7825235  19.0640153  )
        50           N1  tau(  50) = (   6.2271734   2.6017940  20.1640153  )

     number of k points=    10  Fermi-Dirac smearing, width (Ry)=  0.0007
                       cart. coord. in units 2pi/alat
        k(    1) = (   0.0000000   0.0000000   0.0000000), wk =   0.0625000
        k(    2) = (   0.0000000   0.0419351   0.0000000), wk =   0.1250000
        k(    3) = (   0.0000000  -0.0838702   0.0000000), wk =   0.0625000
        k(    4) = (   0.0379955   0.0000049   0.0000000), wk =   0.1250000
        k(    5) = (   0.0379955   0.0419400   0.0000000), wk =   0.1250000
        k(    6) = (   0.0379955  -0.0838652   0.0000000), wk =   0.1250000
        k(    7) = (   0.0379955  -0.0419301   0.0000000), wk =   0.1250000
        k(    8) = (  -0.0759910  -0.0000099   0.0000000), wk =   0.0625000
        k(    9) = (  -0.0759910   0.0419252   0.0000000), wk =   0.1250000
        k(   10) = (  -0.0759910  -0.0838800   0.0000000), wk =   0.0625000

     Dense  grid:   792059 G-vectors     FFT dimensions: (  75,  72, 300)

     Smooth grid:   200495 G-vectors     FFT dimensions: (  48,  45, 192)

     Estimated max dynamical RAM per process >     383.95 MB

     Estimated total dynamical RAM >       6.00 GB

     Check: negative core charge=   -0.000008
     Generating pointlists ...
     new r_m :   0.7405 (alat units)  1.3994 (a.u.) for type    1
     new r_m :   0.7405 (alat units)  1.3994 (a.u.) for type    2
     new r_m :   0.5092 (alat units)  0.9623 (a.u.) for type    3
     new r_m :   0.4626 (alat units)  0.8741 (a.u.) for type    4

     Initial potential from superposition of free atoms

     starting charge  375.99919, renormalised to  392.00000

     negative rho (up, down):  1.154E-02 1.154E-02


     %%%%%%%%%%%%%%%%%%%%%%%%%%%%%%%%%%%%%%%%%%%%%%%%%%%%%%%%%%%%%%%%%%%%%%%%
     %                                                                      %
     % You are using vdW-DF, which was implemented by the Thonhauser group. %
     % Please cite the following two papers that made this development      %
     % possible and the two reviews that describe the various versions:     %
     %                                                                      %
     %   T. Thonhauser et al., PRL 115, 136402 (2015).                      %
     %   T. Thonhauser et al., PRB 76, 125112 (2007).                       %
     %   K. Berland et al., Rep. Prog. Phys. 78, 066501 (2015).             %
     %   D.C. Langreth et al., J. Phys.: Condens. Matter 21, 084203 (2009). %
     %                                                                      %
     %                                                                      %
     % If you are calculating the stress with vdW-DF, please also cite:     %
     %                                                                      %
     %   R. Sabatini et al., J. Phys.: Condens. Matter 24, 424209 (2012).   %
     %                                                                      %
     %%%%%%%%%%%%%%%%%%%%%%%%%%%%%%%%%%%%%%%%%%%%%%%%%%%%%%%%%%%%%%%%%%%%%%%%


 
     Adding external electric field

     Computed dipole along edir(3) : 
        Dipole               -7.1559 Ry au,        -18.1884 Debye
        Dipole field         -0.0135 Ry au, 
 
        Potential amp.        1.2518 Ry
        Total length         46.3494 bohr
 
 
     Adding external electric field

     Computed dipole along edir(3) : 
        Dipole               -7.1559 Ry au,        -18.1884 Debye
        Dipole field         -0.0135 Ry au, 
 
        Potential amp.        1.2518 Ry
        Total length         46.3494 bohr
 
     Starting wfcs are  296 randomized atomic wfcs
     Checking if some PAW data can be deallocated... 
  @ DRIVER MODE: Message from server: STATUS
  @ DRIVER MODE: Message from server: POSDATA
  @ DRIVER MODE: Reading and sharing cell 
  @ DRIVER MODE: Reading and sharing positions 
  @ DRIVER MODE: Received positions 

     total cpu time spent up to now is       17.3 secs

     Self-consistent Calculation

     iteration #  1     ecut=    36.75 Ry     beta= 0.05
     Davidson diagonalization with overlap
     ethr =  1.00E-02,  avg # of iterations =  2.1

     negative rho (up, down):  1.084E-02 1.084E-02
 
     Adding external electric field

     Computed dipole along edir(3) : 
        Dipole               27.8886 Ry au,         70.8858 Debye
        Dipole field          0.0526 Ry au, 
 
        Potential amp.       -4.8787 Ry
        Total length         46.3494 bohr
 
 
     Adding external electric field

     Computed dipole along edir(3) : 
        Dipole               27.8886 Ry au,         70.8858 Debye
        Dipole field          0.0526 Ry au, 
 
        Potential amp.       -4.8787 Ry
        Total length         46.3494 bohr
 

     total cpu time spent up to now is       38.3 secs

     total energy              =   -3128.20775971 Ry
     estimated scf accuracy    <    1930.23166203 Ry

     total magnetization       =     0.04 Bohr mag/cell
     absolute magnetization    =     0.21 Bohr mag/cell

     iteration #  2     ecut=    36.75 Ry     beta= 0.05
     Davidson diagonalization with overlap
     ethr =  1.00E-02,  avg # of iterations = 13.8

     negative rho (up, down):  1.039E-02 1.039E-02
 
     Adding external electric field

     Computed dipole along edir(3) : 
        Dipole               -3.0267 Ry au,         -7.6930 Debye
        Dipole field         -0.0057 Ry au, 
 
        Potential amp.        0.5295 Ry
        Total length         46.3494 bohr
 
 
     Adding external electric field

     Computed dipole along edir(3) : 
        Dipole               -3.0267 Ry au,         -7.6930 Debye
        Dipole field         -0.0057 Ry au, 
 
        Potential amp.        0.5295 Ry
        Total length         46.3494 bohr
 

     total cpu time spent up to now is      126.4 secs

     total energy              =   -3018.40361786 Ry
     estimated scf accuracy    <   37882.04745509 Ry

     total magnetization       =     0.05 Bohr mag/cell
     absolute magnetization    =     0.41 Bohr mag/cell

     iteration #  3     ecut=    36.75 Ry     beta= 0.05
     Davidson diagonalization with overlap
     ethr =  1.00E-02,  avg # of iterations = 13.9

     negative rho (up, down):  1.031E-02 1.031E-02
 
     Adding external electric field

     Computed dipole along edir(3) : 
        Dipole               -3.9598 Ry au,        -10.0649 Debye
        Dipole field         -0.0075 Ry au, 
 
        Potential amp.        0.6927 Ry
        Total length         46.3494 bohr
 
 
     Adding external electric field

     Computed dipole along edir(3) : 
        Dipole               -3.9598 Ry au,        -10.0649 Debye
        Dipole field         -0.0075 Ry au, 
 
        Potential amp.        0.6927 Ry
        Total length         46.3494 bohr
 

     total cpu time spent up to now is      198.2 secs

     total energy              =   -3290.79298502 Ry
     estimated scf accuracy    <    1505.96949329 Ry

     total magnetization       =     0.09 Bohr mag/cell
     absolute magnetization    =     0.25 Bohr mag/cell

     iteration #  4     ecut=    36.75 Ry     beta= 0.05
     Davidson diagonalization with overlap
     ethr =  1.00E-02,  avg # of iterations =  3.3

     negative rho (up, down):  1.028E-02 1.028E-02
 
     Adding external electric field

     Computed dipole along edir(3) : 
        Dipole               -5.0792 Ry au,        -12.9101 Debye
        Dipole field         -0.0096 Ry au, 
 
        Potential amp.        0.8885 Ry
        Total length         46.3494 bohr
 
 
     Adding external electric field

     Computed dipole along edir(3) : 
        Dipole               -5.0792 Ry au,        -12.9101 Debye
        Dipole field         -0.0096 Ry au, 
 
        Potential amp.        0.8885 Ry
        Total length         46.3494 bohr
 

     total cpu time spent up to now is      218.9 secs

     total energy              =   -3274.68370690 Ry
     estimated scf accuracy    <    1289.08626958 Ry

     total magnetization       =     0.38 Bohr mag/cell
     absolute magnetization    =     0.63 Bohr mag/cell

     iteration #  5     ecut=    36.75 Ry     beta= 0.05
     Davidson diagonalization with overlap
     ethr =  1.00E-02,  avg # of iterations = 10.6

     negative rho (up, down):  1.032E-02 1.034E-02
 
     Adding external electric field

     Computed dipole along edir(3) : 
        Dipole               -4.3719 Ry au,        -11.1124 Debye
        Dipole field         -0.0083 Ry au, 
 
        Potential amp.        0.7648 Ry
        Total length         46.3494 bohr
 
 
     Adding external electric field

     Computed dipole along edir(3) : 
        Dipole               -4.3719 Ry au,        -11.1124 Debye
        Dipole field         -0.0083 Ry au, 
 
        Potential amp.        0.7648 Ry
        Total length         46.3494 bohr
 

     total cpu time spent up to now is      260.8 secs

     total energy              =   -3303.87916547 Ry
     estimated scf accuracy    <      42.01237090 Ry

     total magnetization       =     0.45 Bohr mag/cell
     absolute magnetization    =     0.56 Bohr mag/cell

     iteration #  6     ecut=    36.75 Ry     beta= 0.05
     Davidson diagonalization with overlap
     ethr =  1.00E-02,  avg # of iterations =  1.0

     negative rho (up, down):  1.058E-02 1.061E-02
 
     Adding external electric field

     Computed dipole along edir(3) : 
        Dipole               -4.0210 Ry au,        -10.2204 Debye
        Dipole field         -0.0076 Ry au, 
 
        Potential amp.        0.7034 Ry
        Total length         46.3494 bohr
 
 
     Adding external electric field

     Computed dipole along edir(3) : 
        Dipole               -4.0210 Ry au,        -10.2204 Debye
        Dipole field         -0.0076 Ry au, 
 
        Potential amp.        0.7034 Ry
        Total length         46.3494 bohr
 

     total cpu time spent up to now is      279.1 secs

     total energy              =   -3303.07927190 Ry
     estimated scf accuracy    <      16.90521243 Ry

     total magnetization       =     0.41 Bohr mag/cell
     absolute magnetization    =     0.47 Bohr mag/cell

     iteration #  7     ecut=    36.75 Ry     beta= 0.05
     Davidson diagonalization with overlap
     ethr =  4.31E-03,  avg # of iterations =  1.1

     negative rho (up, down):  1.089E-02 1.091E-02
 
     Adding external electric field

     Computed dipole along edir(3) : 
        Dipole               -3.6960 Ry au,         -9.3942 Debye
        Dipole field         -0.0070 Ry au, 
 
        Potential amp.        0.6466 Ry
        Total length         46.3494 bohr
 
 
     Adding external electric field

     Computed dipole along edir(3) : 
        Dipole               -3.6960 Ry au,         -9.3942 Debye
        Dipole field         -0.0070 Ry au, 
 
        Potential amp.        0.6466 Ry
        Total length         46.3494 bohr
 

     total cpu time spent up to now is      297.3 secs

     total energy              =   -3302.47807482 Ry
     estimated scf accuracy    <      12.07876379 Ry

     total magnetization       =     0.12 Bohr mag/cell
     absolute magnetization    =     0.25 Bohr mag/cell

     iteration #  8     ecut=    36.75 Ry     beta= 0.05
     Davidson diagonalization with overlap
     ethr =  3.08E-03,  avg # of iterations =  1.3

     negative rho (up, down):  1.488E-02 1.477E-02
 
     Adding external electric field

     Computed dipole along edir(3) : 
        Dipole               -2.4378 Ry au,         -6.1963 Debye
        Dipole field         -0.0046 Ry au, 
 
        Potential amp.        0.4265 Ry
        Total length         46.3494 bohr
 
 
     Adding external electric field

     Computed dipole along edir(3) : 
        Dipole               -2.4378 Ry au,         -6.1963 Debye
        Dipole field         -0.0046 Ry au, 
 
        Potential amp.        0.4265 Ry
        Total length         46.3494 bohr
 

     total cpu time spent up to now is      315.8 secs

     total energy              =   -3300.59220060 Ry
     estimated scf accuracy    <       7.19722562 Ry

     total magnetization       =    -0.55 Bohr mag/cell
     absolute magnetization    =     0.61 Bohr mag/cell

     iteration #  9     ecut=    36.75 Ry     beta= 0.05
     Davidson diagonalization with overlap
     ethr =  1.84E-03,  avg # of iterations = 15.7

     negative rho (up, down):  1.448E-02 1.439E-02
 
     Adding external electric field

     Computed dipole along edir(3) : 
        Dipole               -2.4744 Ry au,         -6.2892 Debye
        Dipole field         -0.0047 Ry au, 
 
        Potential amp.        0.4329 Ry
        Total length         46.3494 bohr
 
 
     Adding external electric field

     Computed dipole along edir(3) : 
        Dipole               -2.4744 Ry au,         -6.2892 Debye
        Dipole field         -0.0047 Ry au, 
 
        Potential amp.        0.4329 Ry
        Total length         46.3494 bohr
 

     total cpu time spent up to now is      358.8 secs

     total energy              =   -3305.23738199 Ry
     estimated scf accuracy    <     700.85771723 Ry

     total magnetization       =     0.12 Bohr mag/cell
     absolute magnetization    =     0.53 Bohr mag/cell

     iteration # 10     ecut=    36.75 Ry     beta= 0.05
     Davidson diagonalization with overlap
     ethr =  1.84E-03,  avg # of iterations =  1.0

     negative rho (up, down):  1.654E-02 1.639E-02
 
     Adding external electric field

     Computed dipole along edir(3) : 
        Dipole               -2.0361 Ry au,         -5.1753 Debye
        Dipole field         -0.0038 Ry au, 
 
        Potential amp.        0.3562 Ry
        Total length         46.3494 bohr
 
 
     Adding external electric field

     Computed dipole along edir(3) : 
        Dipole               -2.0361 Ry au,         -5.1753 Debye
        Dipole field         -0.0038 Ry au, 
 
        Potential amp.        0.3562 Ry
        Total length         46.3494 bohr
 

     total cpu time spent up to now is      376.7 secs

     total energy              =   -3308.88562878 Ry
     estimated scf accuracy    <     544.09062478 Ry

     total magnetization       =    -0.02 Bohr mag/cell
     absolute magnetization    =     0.42 Bohr mag/cell

     iteration # 11     ecut=    36.75 Ry     beta= 0.05
     Davidson diagonalization with overlap
     ethr =  1.84E-03,  avg # of iterations =  1.9

     negative rho (up, down):  1.477E-02 1.467E-02
 
     Adding external electric field

     Computed dipole along edir(3) : 
        Dipole               -2.3006 Ry au,         -5.8475 Debye
        Dipole field         -0.0043 Ry au, 
 
        Potential amp.        0.4025 Ry
        Total length         46.3494 bohr
 
 
     Adding external electric field

     Computed dipole along edir(3) : 
        Dipole               -2.3006 Ry au,         -5.8475 Debye
        Dipole field         -0.0043 Ry au, 
 
        Potential amp.        0.4025 Ry
        Total length         46.3494 bohr
 

     total cpu time spent up to now is      396.3 secs

     total energy              =   -3302.70524791 Ry
     estimated scf accuracy    <    1218.00098060 Ry

     total magnetization       =     0.07 Bohr mag/cell
     absolute magnetization    =     0.63 Bohr mag/cell

     iteration # 12     ecut=    36.75 Ry     beta= 0.05
     Davidson diagonalization with overlap
     ethr =  1.84E-03,  avg # of iterations =  1.0

     negative rho (up, down):  1.359E-02 1.355E-02
 
     Adding external electric field

     Computed dipole along edir(3) : 
        Dipole               -2.2775 Ry au,         -5.7889 Debye
        Dipole field         -0.0043 Ry au, 
 
        Potential amp.        0.3984 Ry
        Total length         46.3494 bohr
 
 
     Adding external electric field

     Computed dipole along edir(3) : 
        Dipole               -2.2775 Ry au,         -5.7889 Debye
        Dipole field         -0.0043 Ry au, 
 
        Potential amp.        0.3984 Ry
        Total length         46.3494 bohr
 

     total cpu time spent up to now is      415.5 secs

     total energy              =   -3301.57465942 Ry
     estimated scf accuracy    <     365.27127177 Ry

     total magnetization       =     0.19 Bohr mag/cell
     absolute magnetization    =     0.46 Bohr mag/cell

     iteration # 13     ecut=    36.75 Ry     beta= 0.05
     Davidson diagonalization with overlap
     ethr =  1.84E-03,  avg # of iterations =  2.1

     negative rho (up, down):  1.146E-02 1.156E-02
 
     Adding external electric field

     Computed dipole along edir(3) : 
        Dipole               -2.6578 Ry au,         -6.7554 Debye
        Dipole field         -0.0050 Ry au, 
 
        Potential amp.        0.4649 Ry
        Total length         46.3494 bohr
 
 
     Adding external electric field

     Computed dipole along edir(3) : 
        Dipole               -2.6578 Ry au,         -6.7554 Debye
        Dipole field         -0.0050 Ry au, 
 
        Potential amp.        0.4649 Ry
        Total length         46.3494 bohr
 

     total cpu time spent up to now is      435.7 secs

     total energy              =   -3291.76020030 Ry
     estimated scf accuracy    <     333.46106530 Ry

     total magnetization       =     0.14 Bohr mag/cell
     absolute magnetization    =     0.50 Bohr mag/cell

     iteration # 14     ecut=    36.75 Ry     beta= 0.05
     Davidson diagonalization with overlap
     ethr =  1.84E-03,  avg # of iterations = 13.2

     negative rho (up, down):  1.165E-02 1.172E-02
 
     Adding external electric field

     Computed dipole along edir(3) : 
        Dipole               -2.5273 Ry au,         -6.4238 Debye
        Dipole field         -0.0048 Ry au, 
 
        Potential amp.        0.4421 Ry
        Total length         46.3494 bohr
 
 
     Adding external electric field

     Computed dipole along edir(3) : 
        Dipole               -2.5273 Ry au,         -6.4238 Debye
        Dipole field         -0.0048 Ry au, 
 
        Potential amp.        0.4421 Ry
        Total length         46.3494 bohr
 

     total cpu time spent up to now is      483.6 secs

     total energy              =   -3301.14066404 Ry
     estimated scf accuracy    <     396.58048364 Ry

     total magnetization       =     0.03 Bohr mag/cell
     absolute magnetization    =     0.18 Bohr mag/cell

     iteration # 15     ecut=    36.75 Ry     beta= 0.05
     Davidson diagonalization with overlap
     ethr =  1.84E-03,  avg # of iterations =  1.9

     negative rho (up, down):  1.148E-02 1.156E-02
 
     Adding external electric field

     Computed dipole along edir(3) : 
        Dipole               -2.6075 Ry au,         -6.6276 Debye
        Dipole field         -0.0049 Ry au, 
 
        Potential amp.        0.4561 Ry
        Total length         46.3494 bohr
 
 
     Adding external electric field

     Computed dipole along edir(3) : 
        Dipole               -2.6075 Ry au,         -6.6276 Debye
        Dipole field         -0.0049 Ry au, 
 
        Potential amp.        0.4561 Ry
        Total length         46.3494 bohr
 

     total cpu time spent up to now is      502.7 secs

     total energy              =   -3302.28842210 Ry
     estimated scf accuracy    <      98.41107159 Ry

     total magnetization       =    -0.05 Bohr mag/cell
     absolute magnetization    =     0.26 Bohr mag/cell

     iteration # 16     ecut=    36.75 Ry     beta= 0.05
     Davidson diagonalization with overlap
     ethr =  1.84E-03,  avg # of iterations =  1.0

     negative rho (up, down):  1.172E-02 1.179E-02
 
     Adding external electric field

     Computed dipole along edir(3) : 
        Dipole               -2.4507 Ry au,         -6.2290 Debye
        Dipole field         -0.0046 Ry au, 
 
        Potential amp.        0.4287 Ry
        Total length         46.3494 bohr
 
 
     Adding external electric field

     Computed dipole along edir(3) : 
        Dipole               -2.4507 Ry au,         -6.2290 Debye
        Dipole field         -0.0046 Ry au, 
 
        Potential amp.        0.4287 Ry
        Total length         46.3494 bohr
 

     total cpu time spent up to now is      520.7 secs

     total energy              =   -3301.88762193 Ry
     estimated scf accuracy    <     178.17057147 Ry

     total magnetization       =     0.00 Bohr mag/cell
     absolute magnetization    =     0.12 Bohr mag/cell

     iteration # 17     ecut=    36.75 Ry     beta= 0.05
     Davidson diagonalization with overlap
     ethr =  1.84E-03,  avg # of iterations =  1.0

     negative rho (up, down):  1.212E-02 1.222E-02
 
     Adding external electric field

     Computed dipole along edir(3) : 
        Dipole               -1.4997 Ry au,         -3.8119 Debye
        Dipole field         -0.0028 Ry au, 
 
        Potential amp.        0.2624 Ry
        Total length         46.3494 bohr
 
 
     Adding external electric field

     Computed dipole along edir(3) : 
        Dipole               -1.4997 Ry au,         -3.8119 Debye
        Dipole field         -0.0028 Ry au, 
 
        Potential amp.        0.2624 Ry
        Total length         46.3494 bohr
 

     total cpu time spent up to now is      538.6 secs

     total energy              =   -3302.03294059 Ry
     estimated scf accuracy    <      99.24771868 Ry

     total magnetization       =     0.02 Bohr mag/cell
     absolute magnetization    =     0.31 Bohr mag/cell

     iteration # 18     ecut=    36.75 Ry     beta= 0.05
     Davidson diagonalization with overlap
     ethr =  1.84E-03,  avg # of iterations =  1.5

     negative rho (up, down):  1.273E-02 1.280E-02
 
     Adding external electric field

     Computed dipole along edir(3) : 
        Dipole               -1.4858 Ry au,         -3.7765 Debye
        Dipole field         -0.0028 Ry au, 
 
        Potential amp.        0.2599 Ry
        Total length         46.3494 bohr
 
 
     Adding external electric field

     Computed dipole along edir(3) : 
        Dipole               -1.4858 Ry au,         -3.7765 Debye
        Dipole field         -0.0028 Ry au, 
 
        Potential amp.        0.2599 Ry
        Total length         46.3494 bohr
 

     total cpu time spent up to now is      557.4 secs

     total energy              =   -3300.58174921 Ry
     estimated scf accuracy    <     123.64175875 Ry

     total magnetization       =     0.04 Bohr mag/cell
     absolute magnetization    =     0.35 Bohr mag/cell

     iteration # 19     ecut=    36.75 Ry     beta= 0.05
     Davidson diagonalization with overlap
     ethr =  1.84E-03,  avg # of iterations =  2.5

     negative rho (up, down):  1.261E-02 1.267E-02
 
     Adding external electric field

     Computed dipole along edir(3) : 
        Dipole               -1.7318 Ry au,         -4.4019 Debye
        Dipole field         -0.0033 Ry au, 
 
        Potential amp.        0.3030 Ry
        Total length         46.3494 bohr
 
 
     Adding external electric field

     Computed dipole along edir(3) : 
        Dipole               -1.7318 Ry au,         -4.4019 Debye
        Dipole field         -0.0033 Ry au, 
 
        Potential amp.        0.3030 Ry
        Total length         46.3494 bohr
 

     total cpu time spent up to now is      577.2 secs

     total energy              =   -3300.52311489 Ry
     estimated scf accuracy    <      31.32020845 Ry

     total magnetization       =     0.47 Bohr mag/cell
     absolute magnetization    =     0.49 Bohr mag/cell

     iteration # 20     ecut=    36.75 Ry     beta= 0.05
     Davidson diagonalization with overlap
     c_bands:  1 eigenvalues not converged
     ethr =  1.84E-03,  avg # of iterations = 10.6

     negative rho (up, down):  1.233E-02 1.240E-02
 
     Adding external electric field

     Computed dipole along edir(3) : 
        Dipole               -1.7864 Ry au,         -4.5406 Debye
        Dipole field         -0.0034 Ry au, 
 
        Potential amp.        0.3125 Ry
        Total length         46.3494 bohr
 
 
     Adding external electric field

     Computed dipole along edir(3) : 
        Dipole               -1.7864 Ry au,         -4.5406 Debye
        Dipole field         -0.0034 Ry au, 
 
        Potential amp.        0.3125 Ry
        Total length         46.3494 bohr
 

     total cpu time spent up to now is      603.6 secs

     total energy              =   -3301.16819399 Ry
     estimated scf accuracy    <       2.39140102 Ry

     total magnetization       =     0.13 Bohr mag/cell
     absolute magnetization    =     0.23 Bohr mag/cell

     iteration # 21     ecut=    36.75 Ry     beta= 0.05
     Davidson diagonalization with overlap
     ethr =  6.10E-04,  avg # of iterations =  7.2

     negative rho (up, down):  1.182E-02 1.190E-02
 
     Adding external electric field

     Computed dipole along edir(3) : 
        Dipole               -1.8011 Ry au,         -4.5779 Debye
        Dipole field         -0.0034 Ry au, 
 
        Potential amp.        0.3151 Ry
        Total length         46.3494 bohr
 
 
     Adding external electric field

     Computed dipole along edir(3) : 
        Dipole               -1.8011 Ry au,         -4.5779 Debye
        Dipole field         -0.0034 Ry au, 
 
        Potential amp.        0.3151 Ry
        Total length         46.3494 bohr
 

     total cpu time spent up to now is      627.8 secs

     total energy              =   -3301.16653097 Ry
     estimated scf accuracy    <       1.56832966 Ry

     total magnetization       =     0.00 Bohr mag/cell
     absolute magnetization    =     0.21 Bohr mag/cell

     iteration # 22     ecut=    36.75 Ry     beta= 0.05
     Davidson diagonalization with overlap
     ethr =  4.00E-04,  avg # of iterations =  3.9

     negative rho (up, down):  1.154E-02 1.162E-02
 
     Adding external electric field

     Computed dipole along edir(3) : 
        Dipole               -1.6397 Ry au,         -4.1678 Debye
        Dipole field         -0.0031 Ry au, 
 
        Potential amp.        0.2868 Ry
        Total length         46.3494 bohr
 
 
     Adding external electric field

     Computed dipole along edir(3) : 
        Dipole               -1.6397 Ry au,         -4.1678 Debye
        Dipole field         -0.0031 Ry au, 
 
        Potential amp.        0.2868 Ry
        Total length         46.3494 bohr
 

     total cpu time spent up to now is      649.0 secs

     total energy              =   -3301.17565803 Ry
     estimated scf accuracy    <       0.95303198 Ry

     total magnetization       =    -0.08 Bohr mag/cell
     absolute magnetization    =     0.22 Bohr mag/cell

     iteration # 23     ecut=    36.75 Ry     beta= 0.05
     Davidson diagonalization with overlap
     c_bands:  2 eigenvalues not converged
     ethr =  2.43E-04,  avg # of iterations = 11.1

     negative rho (up, down):  1.158E-02 1.166E-02
 
     Adding external electric field

     Computed dipole along edir(3) : 
        Dipole               -1.3065 Ry au,         -3.3208 Debye
        Dipole field         -0.0025 Ry au, 
 
        Potential amp.        0.2286 Ry
        Total length         46.3494 bohr
 
 
     Adding external electric field

     Computed dipole along edir(3) : 
        Dipole               -1.3065 Ry au,         -3.3208 Debye
        Dipole field         -0.0025 Ry au, 
 
        Potential amp.        0.2286 Ry
        Total length         46.3494 bohr
 

     total cpu time spent up to now is      676.1 secs

     total energy              =   -3301.19672078 Ry
     estimated scf accuracy    <      10.22837955 Ry

     total magnetization       =    -0.12 Bohr mag/cell
     absolute magnetization    =     0.25 Bohr mag/cell

     iteration # 24     ecut=    36.75 Ry     beta= 0.05
     Davidson diagonalization with overlap
     ethr =  2.43E-04,  avg # of iterations =  4.0

     negative rho (up, down):  1.158E-02 1.166E-02
 
     Adding external electric field

     Computed dipole along edir(3) : 
        Dipole               -1.2549 Ry au,         -3.1896 Debye
        Dipole field         -0.0024 Ry au, 
 
        Potential amp.        0.2195 Ry
        Total length         46.3494 bohr
 
 
     Adding external electric field

     Computed dipole along edir(3) : 
        Dipole               -1.2549 Ry au,         -3.1896 Debye
        Dipole field         -0.0024 Ry au, 
 
        Potential amp.        0.2195 Ry
        Total length         46.3494 bohr
 

     total cpu time spent up to now is      697.1 secs

     total energy              =   -3301.21981762 Ry
     estimated scf accuracy    <       0.91339465 Ry

     total magnetization       =    -0.34 Bohr mag/cell
     absolute magnetization    =     0.52 Bohr mag/cell

     iteration # 25     ecut=    36.75 Ry     beta= 0.05
     Davidson diagonalization with overlap
     ethr =  2.33E-04,  avg # of iterations =  1.1

     negative rho (up, down):  1.155E-02 1.162E-02
 
     Adding external electric field

     Computed dipole along edir(3) : 
        Dipole               -1.1378 Ry au,         -2.8919 Debye
        Dipole field         -0.0021 Ry au, 
 
        Potential amp.        0.1990 Ry
        Total length         46.3494 bohr
 
 
     Adding external electric field

     Computed dipole along edir(3) : 
        Dipole               -1.1378 Ry au,         -2.8919 Debye
        Dipole field         -0.0021 Ry au, 
 
        Potential amp.        0.1990 Ry
        Total length         46.3494 bohr
 

     total cpu time spent up to now is      715.2 secs

     total energy              =   -3301.20546172 Ry
     estimated scf accuracy    <       0.51507897 Ry

     total magnetization       =    -0.49 Bohr mag/cell
     absolute magnetization    =     0.67 Bohr mag/cell

     iteration # 26     ecut=    36.75 Ry     beta= 0.05
     Davidson diagonalization with overlap
     ethr =  1.31E-04,  avg # of iterations =  9.2

     negative rho (up, down):  1.136E-02 1.142E-02
 
     Adding external electric field

     Computed dipole along edir(3) : 
        Dipole               -0.8924 Ry au,         -2.2683 Debye
        Dipole field         -0.0017 Ry au, 
 
        Potential amp.        0.1561 Ry
        Total length         46.3494 bohr
 
 
     Adding external electric field

     Computed dipole along edir(3) : 
        Dipole               -0.8924 Ry au,         -2.2683 Debye
        Dipole field         -0.0017 Ry au, 
 
        Potential amp.        0.1561 Ry
        Total length         46.3494 bohr
 

     total cpu time spent up to now is      749.6 secs

     total energy              =   -3301.18729296 Ry
     estimated scf accuracy    <       0.28327568 Ry

     total magnetization       =    -0.47 Bohr mag/cell
     absolute magnetization    =     0.76 Bohr mag/cell

     iteration # 27     ecut=    36.75 Ry     beta= 0.05
     Davidson diagonalization with overlap
     c_bands:  2 eigenvalues not converged
     c_bands:  2 eigenvalues not converged
     c_bands:  1 eigenvalues not converged
     c_bands:  5 eigenvalues not converged
     c_bands:  1 eigenvalues not converged
     c_bands:  2 eigenvalues not converged
     c_bands:  2 eigenvalues not converged
     c_bands:  4 eigenvalues not converged
     c_bands:  4 eigenvalues not converged
     c_bands:  4 eigenvalues not converged
     ethr =  7.23E-05,  avg # of iterations = 18.2

     negative rho (up, down):  1.131E-02 1.137E-02
 
     Adding external electric field

     Computed dipole along edir(3) : 
        Dipole               -0.8833 Ry au,         -2.2451 Debye
        Dipole field         -0.0017 Ry au, 
 
        Potential amp.        0.1545 Ry
        Total length         46.3494 bohr
 
 
     Adding external electric field

     Computed dipole along edir(3) : 
        Dipole               -0.8833 Ry au,         -2.2451 Debye
        Dipole field         -0.0017 Ry au, 
 
        Potential amp.        0.1545 Ry
        Total length         46.3494 bohr
 

     total cpu time spent up to now is      785.3 secs

     total energy              =   -3301.21877589 Ry
     estimated scf accuracy    <       0.69676633 Ry

     total magnetization       =    -0.76 Bohr mag/cell
     absolute magnetization    =     1.03 Bohr mag/cell

     iteration # 28     ecut=    36.75 Ry     beta= 0.05
     Davidson diagonalization with overlap
     ethr =  7.23E-05,  avg # of iterations =  2.9

     negative rho (up, down):  1.124E-02 1.130E-02
 
     Adding external electric field

     Computed dipole along edir(3) : 
        Dipole               -0.9795 Ry au,         -2.4897 Debye
        Dipole field         -0.0018 Ry au, 
 
        Potential amp.        0.1714 Ry
        Total length         46.3494 bohr
 
 
     Adding external electric field

     Computed dipole along edir(3) : 
        Dipole               -0.9795 Ry au,         -2.4897 Debye
        Dipole field         -0.0018 Ry au, 
 
        Potential amp.        0.1714 Ry
        Total length         46.3494 bohr
 

     total cpu time spent up to now is      805.1 secs

     total energy              =   -3301.20698403 Ry
     estimated scf accuracy    <       0.75455393 Ry

     total magnetization       =    -0.79 Bohr mag/cell
     absolute magnetization    =     1.05 Bohr mag/cell

     iteration # 29     ecut=    36.75 Ry     beta= 0.05
     Davidson diagonalization with overlap
     ethr =  7.23E-05,  avg # of iterations =  2.8

     negative rho (up, down):  1.124E-02 1.130E-02
 
     Adding external electric field

     Computed dipole along edir(3) : 
        Dipole               -0.8856 Ry au,         -2.2509 Debye
        Dipole field         -0.0017 Ry au, 
 
        Potential amp.        0.1549 Ry
        Total length         46.3494 bohr
 
 
     Adding external electric field

     Computed dipole along edir(3) : 
        Dipole               -0.8856 Ry au,         -2.2509 Debye
        Dipole field         -0.0017 Ry au, 
 
        Potential amp.        0.1549 Ry
        Total length         46.3494 bohr
 

     total cpu time spent up to now is      825.9 secs

     total energy              =   -3301.21522620 Ry
     estimated scf accuracy    <       1.17317449 Ry

     total magnetization       =    -0.74 Bohr mag/cell
     absolute magnetization    =     1.02 Bohr mag/cell

     iteration # 30     ecut=    36.75 Ry     beta= 0.05
     Davidson diagonalization with overlap
     c_bands:  2 eigenvalues not converged
     ethr =  7.23E-05,  avg # of iterations =  2.1

     negative rho (up, down):  1.123E-02 1.129E-02
 
     Adding external electric field

     Computed dipole along edir(3) : 
        Dipole               -0.9274 Ry au,         -2.3573 Debye
        Dipole field         -0.0018 Ry au, 
 
        Potential amp.        0.1622 Ry
        Total length         46.3494 bohr
 
 
     Adding external electric field

     Computed dipole along edir(3) : 
        Dipole               -0.9274 Ry au,         -2.3573 Debye
        Dipole field         -0.0018 Ry au, 
 
        Potential amp.        0.1622 Ry
        Total length         46.3494 bohr
 

     total cpu time spent up to now is      845.1 secs

     total energy              =   -3301.19367859 Ry
     estimated scf accuracy    <       0.79488680 Ry

     total magnetization       =    -0.73 Bohr mag/cell
     absolute magnetization    =     1.06 Bohr mag/cell

     iteration # 31     ecut=    36.75 Ry     beta= 0.05
     Davidson diagonalization with overlap
     ethr =  7.23E-05,  avg # of iterations =  6.3

     negative rho (up, down):  1.113E-02 1.117E-02
 
     Adding external electric field

     Computed dipole along edir(3) : 
        Dipole               -0.6753 Ry au,         -1.7165 Debye
        Dipole field         -0.0013 Ry au, 
 
        Potential amp.        0.1181 Ry
        Total length         46.3494 bohr
 
 
     Adding external electric field

     Computed dipole along edir(3) : 
        Dipole               -0.6753 Ry au,         -1.7165 Debye
        Dipole field         -0.0013 Ry au, 
 
        Potential amp.        0.1181 Ry
        Total length         46.3494 bohr
 

     total cpu time spent up to now is      868.7 secs

     total energy              =   -3301.20057435 Ry
     estimated scf accuracy    <       0.50714922 Ry

     total magnetization       =    -0.85 Bohr mag/cell
     absolute magnetization    =     1.07 Bohr mag/cell

     iteration # 32     ecut=    36.75 Ry     beta= 0.05
     Davidson diagonalization with overlap
     ethr =  7.23E-05,  avg # of iterations =  5.5

     negative rho (up, down):  1.085E-02 1.087E-02
 
     Adding external electric field

     Computed dipole along edir(3) : 
        Dipole               -0.4350 Ry au,         -1.1056 Debye
        Dipole field         -0.0008 Ry au, 
 
        Potential amp.        0.0761 Ry
        Total length         46.3494 bohr
 
 
     Adding external electric field

     Computed dipole along edir(3) : 
        Dipole               -0.4350 Ry au,         -1.1056 Debye
        Dipole field         -0.0008 Ry au, 
 
        Potential amp.        0.0761 Ry
        Total length         46.3494 bohr
 

     total cpu time spent up to now is      891.0 secs

     total energy              =   -3301.20652424 Ry
     estimated scf accuracy    <       0.25946000 Ry

     total magnetization       =    -0.14 Bohr mag/cell
     absolute magnetization    =     0.47 Bohr mag/cell

     iteration # 33     ecut=    36.75 Ry     beta= 0.05
     Davidson diagonalization with overlap
     ethr =  6.62E-05,  avg # of iterations =  5.9

     negative rho (up, down):  1.082E-02 1.084E-02
 
     Adding external electric field

     Computed dipole along edir(3) : 
        Dipole               -0.4177 Ry au,         -1.0618 Debye
        Dipole field         -0.0008 Ry au, 
 
        Potential amp.        0.0731 Ry
        Total length         46.3494 bohr
 
 
     Adding external electric field

     Computed dipole along edir(3) : 
        Dipole               -0.4177 Ry au,         -1.0618 Debye
        Dipole field         -0.0008 Ry au, 
 
        Potential amp.        0.0731 Ry
        Total length         46.3494 bohr
 

     total cpu time spent up to now is      913.5 secs

     total energy              =   -3301.20082878 Ry
     estimated scf accuracy    <       0.15979453 Ry

     total magnetization       =    -0.48 Bohr mag/cell
     absolute magnetization    =     0.82 Bohr mag/cell

     iteration # 34     ecut=    36.75 Ry     beta= 0.05
     Davidson diagonalization with overlap
     c_bands:  1 eigenvalues not converged
     ethr =  4.08E-05,  avg # of iterations =  7.8

     negative rho (up, down):  1.079E-02 1.082E-02
 
     Adding external electric field

     Computed dipole along edir(3) : 
        Dipole               -0.4376 Ry au,         -1.1121 Debye
        Dipole field         -0.0008 Ry au, 
 
        Potential amp.        0.0765 Ry
        Total length         46.3494 bohr
 
 
     Adding external electric field

     Computed dipole along edir(3) : 
        Dipole               -0.4376 Ry au,         -1.1121 Debye
        Dipole field         -0.0008 Ry au, 
 
        Potential amp.        0.0765 Ry
        Total length         46.3494 bohr
 

     total cpu time spent up to now is      937.9 secs

     total energy              =   -3301.20739006 Ry
     estimated scf accuracy    <       0.13377421 Ry

     total magnetization       =    -0.89 Bohr mag/cell
     absolute magnetization    =     1.10 Bohr mag/cell

     iteration # 35     ecut=    36.75 Ry     beta= 0.05
     Davidson diagonalization with overlap
     ethr =  3.41E-05,  avg # of iterations =  1.4

     negative rho (up, down):  1.078E-02 1.081E-02
 
     Adding external electric field

     Computed dipole along edir(3) : 
        Dipole               -0.4521 Ry au,         -1.1491 Debye
        Dipole field         -0.0009 Ry au, 
 
        Potential amp.        0.0791 Ry
        Total length         46.3494 bohr
 
 
     Adding external electric field

     Computed dipole along edir(3) : 
        Dipole               -0.4521 Ry au,         -1.1491 Debye
        Dipole field         -0.0009 Ry au, 
 
        Potential amp.        0.0791 Ry
        Total length         46.3494 bohr
 

     total cpu time spent up to now is      956.5 secs

     total energy              =   -3301.20642246 Ry
     estimated scf accuracy    <       0.14602434 Ry

     total magnetization       =    -0.82 Bohr mag/cell
     absolute magnetization    =     1.02 Bohr mag/cell

     iteration # 36     ecut=    36.75 Ry     beta= 0.05
     Davidson diagonalization with overlap
     ethr =  3.41E-05,  avg # of iterations =  1.6

     negative rho (up, down):  1.067E-02 1.071E-02
 
     Adding external electric field

     Computed dipole along edir(3) : 
        Dipole               -0.4040 Ry au,         -1.0269 Debye
        Dipole field         -0.0008 Ry au, 
 
        Potential amp.        0.0707 Ry
        Total length         46.3494 bohr
 
 
     Adding external electric field

     Computed dipole along edir(3) : 
        Dipole               -0.4040 Ry au,         -1.0269 Debye
        Dipole field         -0.0008 Ry au, 
 
        Potential amp.        0.0707 Ry
        Total length         46.3494 bohr
 

     total cpu time spent up to now is      976.8 secs

     total energy              =   -3301.20774197 Ry
     estimated scf accuracy    <       0.06304587 Ry

     total magnetization       =    -0.72 Bohr mag/cell
     absolute magnetization    =     0.95 Bohr mag/cell

     iteration # 37     ecut=    36.75 Ry     beta= 0.05
     Davidson diagonalization with overlap
     c_bands:  4 eigenvalues not converged
     ethr =  1.61E-05,  avg # of iterations =  8.8

     negative rho (up, down):  1.056E-02 1.061E-02
 
     Adding external electric field

     Computed dipole along edir(3) : 
        Dipole               -0.3485 Ry au,         -0.8858 Debye
        Dipole field         -0.0007 Ry au, 
 
        Potential amp.        0.0610 Ry
        Total length         46.3494 bohr
 
 
     Adding external electric field

     Computed dipole along edir(3) : 
        Dipole               -0.3485 Ry au,         -0.8858 Debye
        Dipole field         -0.0007 Ry au, 
 
        Potential amp.        0.0610 Ry
        Total length         46.3494 bohr
 

     total cpu time spent up to now is     1002.6 secs

     total energy              =   -3301.21006822 Ry
     estimated scf accuracy    <       0.03185386 Ry

     total magnetization       =    -0.64 Bohr mag/cell
     absolute magnetization    =     1.02 Bohr mag/cell

     iteration # 38     ecut=    36.75 Ry     beta= 0.05
     Davidson diagonalization with overlap
     c_bands:  2 eigenvalues not converged
     c_bands:  1 eigenvalues not converged
     c_bands:  1 eigenvalues not converged
     c_bands:  1 eigenvalues not converged
     c_bands:  1 eigenvalues not converged
     ethr =  8.13E-06,  avg # of iterations =  9.8

     negative rho (up, down):  1.050E-02 1.057E-02
 
     Adding external electric field

     Computed dipole along edir(3) : 
        Dipole               -0.3364 Ry au,         -0.8550 Debye
        Dipole field         -0.0006 Ry au, 
 
        Potential amp.        0.0588 Ry
        Total length         46.3494 bohr
 
 
     Adding external electric field

     Computed dipole along edir(3) : 
        Dipole               -0.3364 Ry au,         -0.8550 Debye
        Dipole field         -0.0006 Ry au, 
 
        Potential amp.        0.0588 Ry
        Total length         46.3494 bohr
 

     total cpu time spent up to now is     1028.6 secs

     total energy              =   -3301.21067589 Ry
     estimated scf accuracy    <       0.05751905 Ry

     total magnetization       =    -0.74 Bohr mag/cell
     absolute magnetization    =     1.03 Bohr mag/cell

     iteration # 39     ecut=    36.75 Ry     beta= 0.05
     Davidson diagonalization with overlap
     ethr =  8.13E-06,  avg # of iterations =  2.4

     negative rho (up, down):  1.044E-02 1.053E-02
 
     Adding external electric field

     Computed dipole along edir(3) : 
        Dipole               -0.3275 Ry au,         -0.8323 Debye
        Dipole field         -0.0006 Ry au, 
 
        Potential amp.        0.0573 Ry
        Total length         46.3494 bohr
 
 
     Adding external electric field

     Computed dipole along edir(3) : 
        Dipole               -0.3275 Ry au,         -0.8323 Debye
        Dipole field         -0.0006 Ry au, 
 
        Potential amp.        0.0573 Ry
        Total length         46.3494 bohr
 

     total cpu time spent up to now is     1048.1 secs

     total energy              =   -3301.21121450 Ry
     estimated scf accuracy    <       0.01691656 Ry

     total magnetization       =    -0.61 Bohr mag/cell
     absolute magnetization    =     1.06 Bohr mag/cell

     iteration # 40     ecut=    36.75 Ry     beta= 0.05
     Davidson diagonalization with overlap
     c_bands:  1 eigenvalues not converged
     c_bands:  1 eigenvalues not converged
     c_bands:  1 eigenvalues not converged
     ethr =  4.32E-06,  avg # of iterations =  8.4

     negative rho (up, down):  1.039E-02 1.054E-02
 
     Adding external electric field

     Computed dipole along edir(3) : 
        Dipole               -0.2781 Ry au,         -0.7069 Debye
        Dipole field         -0.0005 Ry au, 
 
        Potential amp.        0.0487 Ry
        Total length         46.3494 bohr
 
 
     Adding external electric field

     Computed dipole along edir(3) : 
        Dipole               -0.2781 Ry au,         -0.7069 Debye
        Dipole field         -0.0005 Ry au, 
 
        Potential amp.        0.0487 Ry
        Total length         46.3494 bohr
 

     total cpu time spent up to now is     1072.9 secs

     total energy              =   -3301.21259287 Ry
     estimated scf accuracy    <       0.00327703 Ry

     total magnetization       =    -0.50 Bohr mag/cell
     absolute magnetization    =     1.12 Bohr mag/cell

     iteration # 41     ecut=    36.75 Ry     beta= 0.05
     Davidson diagonalization with overlap
     c_bands:  1 eigenvalues not converged
     c_bands:  1 eigenvalues not converged
     c_bands:  3 eigenvalues not converged
     c_bands:  1 eigenvalues not converged
     c_bands:  1 eigenvalues not converged
     c_bands:  1 eigenvalues not converged
     c_bands:  3 eigenvalues not converged
     c_bands:  2 eigenvalues not converged
     c_bands:  1 eigenvalues not converged
     c_bands:  1 eigenvalues not converged
     c_bands:  2 eigenvalues not converged
     ethr =  8.36E-07,  avg # of iterations = 16.7

     negative rho (up, down):  1.043E-02 1.061E-02
 
     Adding external electric field

     Computed dipole along edir(3) : 
        Dipole               -0.2540 Ry au,         -0.6456 Debye
        Dipole field         -0.0005 Ry au, 
 
        Potential amp.        0.0444 Ry
        Total length         46.3494 bohr
 
 
     Adding external electric field

     Computed dipole along edir(3) : 
        Dipole               -0.2540 Ry au,         -0.6456 Debye
        Dipole field         -0.0005 Ry au, 
 
        Potential amp.        0.0444 Ry
        Total length         46.3494 bohr
 

     total cpu time spent up to now is     1105.0 secs

     total energy              =   -3301.21355854 Ry
     estimated scf accuracy    <       0.00287008 Ry

     total magnetization       =    -0.50 Bohr mag/cell
     absolute magnetization    =     1.25 Bohr mag/cell

     iteration # 42     ecut=    36.75 Ry     beta= 0.05
     Davidson diagonalization with overlap
     c_bands:  1 eigenvalues not converged
     ethr =  7.32E-07,  avg # of iterations =  6.5

     negative rho (up, down):  1.053E-02 1.075E-02
 
     Adding external electric field

     Computed dipole along edir(3) : 
        Dipole               -0.2386 Ry au,         -0.6064 Debye
        Dipole field         -0.0005 Ry au, 
 
        Potential amp.        0.0417 Ry
        Total length         46.3494 bohr
 
 
     Adding external electric field

     Computed dipole along edir(3) : 
        Dipole               -0.2386 Ry au,         -0.6064 Debye
        Dipole field         -0.0005 Ry au, 
 
        Potential amp.        0.0417 Ry
        Total length         46.3494 bohr
 

     total cpu time spent up to now is     1128.1 secs

     total energy              =   -3301.21412559 Ry
     estimated scf accuracy    <       0.00092343 Ry

     total magnetization       =    -0.48 Bohr mag/cell
     absolute magnetization    =     1.29 Bohr mag/cell

     iteration # 43     ecut=    36.75 Ry     beta= 0.05
     Davidson diagonalization with overlap
     ethr =  2.36E-07,  avg # of iterations =  7.2

     negative rho (up, down):  1.058E-02 1.081E-02
 
     Adding external electric field

     Computed dipole along edir(3) : 
        Dipole               -0.2324 Ry au,         -0.5907 Debye
        Dipole field         -0.0004 Ry au, 
 
        Potential amp.        0.0407 Ry
        Total length         46.3494 bohr
 
 
     Adding external electric field

     Computed dipole along edir(3) : 
        Dipole               -0.2324 Ry au,         -0.5907 Debye
        Dipole field         -0.0004 Ry au, 
 
        Potential amp.        0.0407 Ry
        Total length         46.3494 bohr
 

     total cpu time spent up to now is     1152.1 secs

     total energy              =   -3301.21445109 Ry
     estimated scf accuracy    <       0.00066947 Ry

     total magnetization       =    -0.44 Bohr mag/cell
     absolute magnetization    =     1.34 Bohr mag/cell

     iteration # 44     ecut=    36.75 Ry     beta= 0.05
     Davidson diagonalization with overlap
     ethr =  1.71E-07,  avg # of iterations =  5.2

     negative rho (up, down):  1.058E-02 1.084E-02
 
     Adding external electric field

     Computed dipole along edir(3) : 
        Dipole               -0.2298 Ry au,         -0.5840 Debye
        Dipole field         -0.0004 Ry au, 
 
        Potential amp.        0.0402 Ry
        Total length         46.3494 bohr
 
 
     Adding external electric field

     Computed dipole along edir(3) : 
        Dipole               -0.2298 Ry au,         -0.5840 Debye
        Dipole field         -0.0004 Ry au, 
 
        Potential amp.        0.0402 Ry
        Total length         46.3494 bohr
 

     total cpu time spent up to now is     1174.1 secs

     total energy              =   -3301.21468326 Ry
     estimated scf accuracy    <       0.00053446 Ry

     total magnetization       =    -0.44 Bohr mag/cell
     absolute magnetization    =     1.37 Bohr mag/cell

     iteration # 45     ecut=    36.75 Ry     beta= 0.05
     Davidson diagonalization with overlap
     ethr =  1.36E-07,  avg # of iterations =  5.6

     negative rho (up, down):  1.058E-02 1.096E-02
 
     Adding external electric field

     Computed dipole along edir(3) : 
        Dipole               -0.2245 Ry au,         -0.5706 Debye
        Dipole field         -0.0004 Ry au, 
 
        Potential amp.        0.0393 Ry
        Total length         46.3494 bohr
 
 
     Adding external electric field

     Computed dipole along edir(3) : 
        Dipole               -0.2245 Ry au,         -0.5706 Debye
        Dipole field         -0.0004 Ry au, 
 
        Potential amp.        0.0393 Ry
        Total length         46.3494 bohr
 

     total cpu time spent up to now is     1196.6 secs

     total energy              =   -3301.21538255 Ry
     estimated scf accuracy    <       0.00045041 Ry

     total magnetization       =    -0.44 Bohr mag/cell
     absolute magnetization    =     1.41 Bohr mag/cell

     iteration # 46     ecut=    36.75 Ry     beta= 0.05
     Davidson diagonalization with overlap
     c_bands:  1 eigenvalues not converged
     c_bands:  1 eigenvalues not converged
     c_bands:  2 eigenvalues not converged
     c_bands:  1 eigenvalues not converged
     ethr =  1.15E-07,  avg # of iterations = 11.5

     negative rho (up, down):  1.058E-02 1.096E-02
 
     Adding external electric field

     Computed dipole along edir(3) : 
        Dipole               -0.2225 Ry au,         -0.5656 Debye
        Dipole field         -0.0004 Ry au, 
 
        Potential amp.        0.0389 Ry
        Total length         46.3494 bohr
 
 
     Adding external electric field

     Computed dipole along edir(3) : 
        Dipole               -0.2225 Ry au,         -0.5656 Debye
        Dipole field         -0.0004 Ry au, 
 
        Potential amp.        0.0389 Ry
        Total length         46.3494 bohr
 

     total cpu time spent up to now is     1229.3 secs

     total energy              =   -3301.21560181 Ry
     estimated scf accuracy    <       0.00046093 Ry

     total magnetization       =    -0.41 Bohr mag/cell
     absolute magnetization    =     1.55 Bohr mag/cell

     iteration # 47     ecut=    36.75 Ry     beta= 0.05
     Davidson diagonalization with overlap
     c_bands:  1 eigenvalues not converged
     ethr =  1.15E-07,  avg # of iterations =  2.1

     negative rho (up, down):  1.052E-02 1.090E-02
 
     Adding external electric field

     Computed dipole along edir(3) : 
        Dipole               -0.2255 Ry au,         -0.5733 Debye
        Dipole field         -0.0004 Ry au, 
 
        Potential amp.        0.0395 Ry
        Total length         46.3494 bohr
 
 
     Adding external electric field

     Computed dipole along edir(3) : 
        Dipole               -0.2255 Ry au,         -0.5733 Debye
        Dipole field         -0.0004 Ry au, 
 
        Potential amp.        0.0395 Ry
        Total length         46.3494 bohr
 

     total cpu time spent up to now is     1248.1 secs

     total energy              =   -3301.21565502 Ry
     estimated scf accuracy    <       0.00043624 Ry

     total magnetization       =    -0.41 Bohr mag/cell
     absolute magnetization    =     1.55 Bohr mag/cell

     iteration # 48     ecut=    36.75 Ry     beta= 0.05
     Davidson diagonalization with overlap
     ethr =  1.11E-07,  avg # of iterations =  1.6

     negative rho (up, down):  1.063E-02 1.102E-02
 
     Adding external electric field

     Computed dipole along edir(3) : 
        Dipole               -0.2123 Ry au,         -0.5396 Debye
        Dipole field         -0.0004 Ry au, 
 
        Potential amp.        0.0371 Ry
        Total length         46.3494 bohr
 
 
     Adding external electric field

     Computed dipole along edir(3) : 
        Dipole               -0.2123 Ry au,         -0.5396 Debye
        Dipole field         -0.0004 Ry au, 
 
        Potential amp.        0.0371 Ry
        Total length         46.3494 bohr
 

     total cpu time spent up to now is     1266.6 secs

     total energy              =   -3301.21574076 Ry
     estimated scf accuracy    <       0.00049906 Ry

     total magnetization       =    -0.41 Bohr mag/cell
     absolute magnetization    =     1.56 Bohr mag/cell

     iteration # 49     ecut=    36.75 Ry     beta= 0.05
     Davidson diagonalization with overlap
     ethr =  1.11E-07,  avg # of iterations =  3.6

     negative rho (up, down):  1.052E-02 1.100E-02
 
     Adding external electric field

     Computed dipole along edir(3) : 
        Dipole               -0.2039 Ry au,         -0.5183 Debye
        Dipole field         -0.0004 Ry au, 
 
        Potential amp.        0.0357 Ry
        Total length         46.3494 bohr
 
 
     Adding external electric field

     Computed dipole along edir(3) : 
        Dipole               -0.2039 Ry au,         -0.5183 Debye
        Dipole field         -0.0004 Ry au, 
 
        Potential amp.        0.0357 Ry
        Total length         46.3494 bohr
 

     total cpu time spent up to now is     1287.7 secs

     total energy              =   -3301.21610185 Ry
     estimated scf accuracy    <       0.00025939 Ry

     total magnetization       =    -0.39 Bohr mag/cell
     absolute magnetization    =     1.58 Bohr mag/cell

     iteration # 50     ecut=    36.75 Ry     beta= 0.05
     Davidson diagonalization with overlap
     ethr =  6.62E-08,  avg # of iterations =  8.7

     negative rho (up, down):  1.049E-02 1.105E-02
 
     Adding external electric field

     Computed dipole along edir(3) : 
        Dipole               -0.1888 Ry au,         -0.4798 Debye
        Dipole field         -0.0004 Ry au, 
 
        Potential amp.        0.0330 Ry
        Total length         46.3494 bohr
 
 
     Adding external electric field

     Computed dipole along edir(3) : 
        Dipole               -0.1888 Ry au,         -0.4798 Debye
        Dipole field         -0.0004 Ry au, 
 
        Potential amp.        0.0330 Ry
        Total length         46.3494 bohr
 

     total cpu time spent up to now is     1314.1 secs

     total energy              =   -3301.21637288 Ry
     estimated scf accuracy    <       0.00020811 Ry

     total magnetization       =    -0.37 Bohr mag/cell
     absolute magnetization    =     1.67 Bohr mag/cell

     iteration # 51     ecut=    36.75 Ry     beta= 0.05
     Davidson diagonalization with overlap
     ethr =  5.31E-08,  avg # of iterations =  8.0

     negative rho (up, down):  1.047E-02 1.103E-02
 
     Adding external electric field

     Computed dipole along edir(3) : 
        Dipole               -0.1895 Ry au,         -0.4818 Debye
        Dipole field         -0.0004 Ry au, 
 
        Potential amp.        0.0332 Ry
        Total length         46.3494 bohr
 
 
     Adding external electric field

     Computed dipole along edir(3) : 
        Dipole               -0.1895 Ry au,         -0.4818 Debye
        Dipole field         -0.0004 Ry au, 
 
        Potential amp.        0.0332 Ry
        Total length         46.3494 bohr
 

     total cpu time spent up to now is     1343.6 secs

     total energy              =   -3301.21644228 Ry
     estimated scf accuracy    <       0.00016351 Ry

     total magnetization       =    -0.35 Bohr mag/cell
     absolute magnetization    =     1.75 Bohr mag/cell

     iteration # 52     ecut=    36.75 Ry     beta= 0.05
     Davidson diagonalization with overlap
     ethr =  4.17E-08,  avg # of iterations =  1.9

     negative rho (up, down):  1.046E-02 1.106E-02
 
     Adding external electric field

     Computed dipole along edir(3) : 
        Dipole               -0.1899 Ry au,         -0.4826 Debye
        Dipole field         -0.0004 Ry au, 
 
        Potential amp.        0.0332 Ry
        Total length         46.3494 bohr
 
 
     Adding external electric field

     Computed dipole along edir(3) : 
        Dipole               -0.1899 Ry au,         -0.4826 Debye
        Dipole field         -0.0004 Ry au, 
 
        Potential amp.        0.0332 Ry
        Total length         46.3494 bohr
 

     total cpu time spent up to now is     1368.4 secs

     total energy              =   -3301.21651945 Ry
     estimated scf accuracy    <       0.00014863 Ry

     total magnetization       =    -0.35 Bohr mag/cell
     absolute magnetization    =     1.76 Bohr mag/cell

     iteration # 53     ecut=    36.75 Ry     beta= 0.05
     Davidson diagonalization with overlap
     ethr =  3.79E-08,  avg # of iterations =  7.7

     negative rho (up, down):  1.035E-02 1.101E-02
 
     Adding external electric field

     Computed dipole along edir(3) : 
        Dipole               -0.1746 Ry au,         -0.4438 Debye
        Dipole field         -0.0003 Ry au, 
 
        Potential amp.        0.0305 Ry
        Total length         46.3494 bohr
 
 
     Adding external electric field

     Computed dipole along edir(3) : 
        Dipole               -0.1746 Ry au,         -0.4438 Debye
        Dipole field         -0.0003 Ry au, 
 
        Potential amp.        0.0305 Ry
        Total length         46.3494 bohr
 

     total cpu time spent up to now is     1395.1 secs

     total energy              =   -3301.21661429 Ry
     estimated scf accuracy    <       0.00010870 Ry

     total magnetization       =    -0.34 Bohr mag/cell
     absolute magnetization    =     1.80 Bohr mag/cell

     iteration # 54     ecut=    36.75 Ry     beta= 0.05
     Davidson diagonalization with overlap
     c_bands:  1 eigenvalues not converged
     ethr =  2.77E-08,  avg # of iterations =  8.2

     negative rho (up, down):  1.034E-02 1.101E-02
 
     Adding external electric field

     Computed dipole along edir(3) : 
        Dipole               -0.1756 Ry au,         -0.4463 Debye
        Dipole field         -0.0003 Ry au, 
 
        Potential amp.        0.0307 Ry
        Total length         46.3494 bohr
 
 
     Adding external electric field

     Computed dipole along edir(3) : 
        Dipole               -0.1756 Ry au,         -0.4463 Debye
        Dipole field         -0.0003 Ry au, 
 
        Potential amp.        0.0307 Ry
        Total length         46.3494 bohr
 

     total cpu time spent up to now is     1575.7 secs

     total energy              =   -3301.21666517 Ry
     estimated scf accuracy    <       0.00015427 Ry

     total magnetization       =    -0.33 Bohr mag/cell
     absolute magnetization    =     1.86 Bohr mag/cell

     iteration # 55     ecut=    36.75 Ry     beta= 0.05
     Davidson diagonalization with overlap
     c_bands:  1 eigenvalues not converged
     ethr =  2.77E-08,  avg # of iterations =  6.3

     negative rho (up, down):  1.036E-02 1.107E-02
 
     Adding external electric field

     Computed dipole along edir(3) : 
        Dipole               -0.1639 Ry au,         -0.4165 Debye
        Dipole field         -0.0003 Ry au, 
 
        Potential amp.        0.0287 Ry
        Total length         46.3494 bohr
 
 
     Adding external electric field

     Computed dipole along edir(3) : 
        Dipole               -0.1639 Ry au,         -0.4165 Debye
        Dipole field         -0.0003 Ry au, 
 
        Potential amp.        0.0287 Ry
        Total length         46.3494 bohr
 

     total cpu time spent up to now is     1599.9 secs

     total energy              =   -3301.21670350 Ry
     estimated scf accuracy    <       0.00008214 Ry

     total magnetization       =    -0.32 Bohr mag/cell
     absolute magnetization    =     1.88 Bohr mag/cell

     iteration # 56     ecut=    36.75 Ry     beta= 0.05
     Davidson diagonalization with overlap
     c_bands:  1 eigenvalues not converged
     ethr =  2.10E-08,  avg # of iterations =  7.5

     negative rho (up, down):  1.035E-02 1.107E-02
 
     Adding external electric field

     Computed dipole along edir(3) : 
        Dipole               -0.1653 Ry au,         -0.4201 Debye
        Dipole field         -0.0003 Ry au, 
 
        Potential amp.        0.0289 Ry
        Total length         46.3494 bohr
 
 
     Adding external electric field

     Computed dipole along edir(3) : 
        Dipole               -0.1653 Ry au,         -0.4201 Debye
        Dipole field         -0.0003 Ry au, 
 
        Potential amp.        0.0289 Ry
        Total length         46.3494 bohr
 

     total cpu time spent up to now is     1626.7 secs

     total energy              =   -3301.21671614 Ry
     estimated scf accuracy    <       0.00012716 Ry

     total magnetization       =    -0.31 Bohr mag/cell
     absolute magnetization    =     1.93 Bohr mag/cell

     iteration # 57     ecut=    36.75 Ry     beta= 0.05
     Davidson diagonalization with overlap
     ethr =  2.10E-08,  avg # of iterations =  6.3

     negative rho (up, down):  1.031E-02 1.104E-02
 
     Adding external electric field

     Computed dipole along edir(3) : 
        Dipole               -0.1667 Ry au,         -0.4237 Debye
        Dipole field         -0.0003 Ry au, 
 
        Potential amp.        0.0292 Ry
        Total length         46.3494 bohr
 
 
     Adding external electric field

     Computed dipole along edir(3) : 
        Dipole               -0.1667 Ry au,         -0.4237 Debye
        Dipole field         -0.0003 Ry au, 
 
        Potential amp.        0.0292 Ry
        Total length         46.3494 bohr
 

     total cpu time spent up to now is     1652.5 secs

     total energy              =   -3301.21673186 Ry
     estimated scf accuracy    <       0.00003654 Ry

     total magnetization       =    -0.30 Bohr mag/cell
     absolute magnetization    =     1.96 Bohr mag/cell

     iteration # 58     ecut=    36.75 Ry     beta= 0.05
     Davidson diagonalization with overlap
     ethr =  9.32E-09,  avg # of iterations =  6.1

     negative rho (up, down):  1.027E-02 1.101E-02
 
     Adding external electric field

     Computed dipole along edir(3) : 
        Dipole               -0.1676 Ry au,         -0.4259 Debye
        Dipole field         -0.0003 Ry au, 
 
        Potential amp.        0.0293 Ry
        Total length         46.3494 bohr
 
 
     Adding external electric field

     Computed dipole along edir(3) : 
        Dipole               -0.1676 Ry au,         -0.4259 Debye
        Dipole field         -0.0003 Ry au, 
 
        Potential amp.        0.0293 Ry
        Total length         46.3494 bohr
 

     total cpu time spent up to now is     1676.5 secs

     total energy              =   -3301.21674260 Ry
     estimated scf accuracy    <       0.00002529 Ry

     total magnetization       =    -0.29 Bohr mag/cell
     absolute magnetization    =     1.97 Bohr mag/cell

     iteration # 59     ecut=    36.75 Ry     beta= 0.05
     Davidson diagonalization with overlap
     ethr =  6.45E-09,  avg # of iterations =  6.3

     negative rho (up, down):  1.022E-02 1.097E-02
 
     Adding external electric field

     Computed dipole along edir(3) : 
        Dipole               -0.1660 Ry au,         -0.4220 Debye
        Dipole field         -0.0003 Ry au, 
 
        Potential amp.        0.0290 Ry
        Total length         46.3494 bohr
 
 
     Adding external electric field

     Computed dipole along edir(3) : 
        Dipole               -0.1660 Ry au,         -0.4220 Debye
        Dipole field         -0.0003 Ry au, 
 
        Potential amp.        0.0290 Ry
        Total length         46.3494 bohr
 

     total cpu time spent up to now is     1701.8 secs

     total energy              =   -3301.21675534 Ry
     estimated scf accuracy    <       0.00002113 Ry

     total magnetization       =    -0.28 Bohr mag/cell
     absolute magnetization    =     1.99 Bohr mag/cell

     iteration # 60     ecut=    36.75 Ry     beta= 0.05
     Davidson diagonalization with overlap
     ethr =  5.39E-09,  avg # of iterations =  6.0

     negative rho (up, down):  1.022E-02 1.098E-02
 
     Adding external electric field

     Computed dipole along edir(3) : 
        Dipole               -0.1661 Ry au,         -0.4221 Debye
        Dipole field         -0.0003 Ry au, 
 
        Potential amp.        0.0291 Ry
        Total length         46.3494 bohr
 
 
     Adding external electric field

     Computed dipole along edir(3) : 
        Dipole               -0.1661 Ry au,         -0.4221 Debye
        Dipole field         -0.0003 Ry au, 
 
        Potential amp.        0.0291 Ry
        Total length         46.3494 bohr
 

     total cpu time spent up to now is     1733.9 secs

     total energy              =   -3301.21676177 Ry
     estimated scf accuracy    <       0.00002122 Ry

     total magnetization       =    -0.28 Bohr mag/cell
     absolute magnetization    =     2.01 Bohr mag/cell

     iteration # 61     ecut=    36.75 Ry     beta= 0.05
     Davidson diagonalization with overlap
     ethr =  5.39E-09,  avg # of iterations =  4.5

     negative rho (up, down):  1.021E-02 1.097E-02
 
     Adding external electric field

     Computed dipole along edir(3) : 
        Dipole               -0.1664 Ry au,         -0.4228 Debye
        Dipole field         -0.0003 Ry au, 
 
        Potential amp.        0.0291 Ry
        Total length         46.3494 bohr
 
 
     Adding external electric field

     Computed dipole along edir(3) : 
        Dipole               -0.1664 Ry au,         -0.4228 Debye
        Dipole field         -0.0003 Ry au, 
 
        Potential amp.        0.0291 Ry
        Total length         46.3494 bohr
 

     total cpu time spent up to now is     1755.7 secs

     total energy              =   -3301.21676886 Ry
     estimated scf accuracy    <       0.00001382 Ry

     total magnetization       =    -0.27 Bohr mag/cell
     absolute magnetization    =     2.02 Bohr mag/cell

     iteration # 62     ecut=    36.75 Ry     beta= 0.05
     Davidson diagonalization with overlap
     ethr =  3.52E-09,  avg # of iterations =  5.0

     negative rho (up, down):  1.018E-02 1.094E-02
 
     Adding external electric field

[...]
    -2.2152  -2.1683  -2.1296  -2.0125  -1.9760  -1.9408  -1.9163  -1.8403
    -1.7553  -1.7323  -1.6935  -1.6402  -1.6085  -1.5533  -1.4617  -1.4506
    -1.4302  -1.3860  -1.3370  -1.3103  -1.2249  -1.1976  -1.1640  -1.1287
    -1.0730  -1.0555  -1.0210  -0.9855  -0.9507  -0.9291  -0.8262  -0.7775
    -0.7404  -0.7366  -0.6757  -0.6121  -0.5963  -0.5277  -0.4668  -0.4386
    -0.3859  -0.2963  -0.2196  -0.1928  -0.1651  -0.1308  -0.0255   0.0052
     0.0444   0.1007   0.1385   0.2011   0.3758   0.4718   0.5571   0.6761
     0.6964   0.7792   1.6002   2.0587   2.5308   2.6701   2.7545   2.8843
     3.1143   3.1835   3.2049   3.2240   3.2711   3.2987

          k = 0.0380-0.0839 0.0000 ( 25070 PWs)   bands (ev):

   -57.0335 -56.9966 -56.2671 -56.2634 -56.2553 -56.2546 -56.1104 -56.1051
   -56.0269 -56.0215 -55.9861 -55.9277 -55.7787 -55.7787 -55.4400 -55.3757
   -33.2411 -33.2401 -33.2101 -33.1942 -33.1406 -33.1084 -32.5677 -32.5670
   -32.5169 -32.5137 -32.4797 -32.4785 -32.4461 -32.4454 -32.4218 -32.4208
   -32.4046 -32.4042 -32.3865 -32.3406 -32.3256 -32.3145 -32.2739 -32.2656
   -32.2601 -32.2599 -32.2591 -32.2564 -32.2523 -32.2102 -32.1766 -32.1711
   -32.1556 -32.1477 -32.1142 -32.0795 -32.0631 -32.0631 -31.9550 -31.9550
   -31.9183 -31.9183 -31.8349 -31.6884 -31.6093 -31.5544 -31.5461 -31.4646
   -19.8652 -16.7758 -16.7672 -16.5014 -16.4939 -16.3861 -16.3744 -16.3265
   -16.3057 -16.2053 -16.1471 -16.0713 -16.0651 -15.9954 -15.9704 -15.9485
   -15.9360 -15.9095 -15.8683 -15.7488 -15.7433 -15.6873 -15.6840 -15.6003
   -15.5854 -15.5214 -15.4626 -15.4479 -15.3252 -15.2329 -14.3576 -14.3548
   -13.1342  -4.0669  -4.0055  -3.9116  -3.9102  -3.8385  -3.6910  -3.6834
    -3.5565  -3.5451  -3.5106  -3.4939  -3.4616  -3.4182  -3.3678  -3.3644
    -3.3087  -3.2907  -3.2892  -3.2712  -3.2216  -3.1916  -3.1440  -3.0585
    -3.0377  -3.0160  -2.9994  -2.9683  -2.8645  -2.8447  -2.7792  -2.7643
    -2.6889  -2.6496  -2.5810  -2.5731  -2.5504  -2.5223  -2.4481  -2.4181
    -2.4091  -2.2443  -2.2395  -2.0993  -2.0721  -2.0292  -2.0053  -1.9549
    -1.9462  -1.7915  -1.7834  -1.7320  -1.5994  -1.5122  -1.4954  -1.4386
    -1.4253  -1.3932  -1.3417  -1.2814  -1.2265  -1.1870  -1.1742  -1.1399
    -1.1262  -1.0888  -1.0717  -0.9978  -0.9784  -0.8966  -0.8499  -0.7903
    -0.7742  -0.7338  -0.7005  -0.6611  -0.6476  -0.6117  -0.5876  -0.5721
    -0.5425  -0.3434  -0.3236  -0.2309  -0.1903  -0.1254  -0.0781  -0.0285
     0.0091   0.0935   0.2578   0.3510   0.4458   0.5103   0.5981   0.5988
     0.7029   0.7053   1.6584   2.0443   2.7359   2.7468   2.9174   2.9203
     3.0831   3.1050   3.2353   3.2479   3.3050   3.3354

          k = 0.0380-0.0419 0.0000 ( 25077 PWs)   bands (ev):

   -57.0369 -56.9930 -56.2774 -56.2675 -56.2530 -56.2424 -56.1202 -56.0953
   -56.0368 -56.0116 -55.9885 -55.9252 -55.7907 -55.7667 -55.4422 -55.3735
   -33.3566 -33.2431 -33.1922 -33.1600 -33.0906 -33.0888 -32.7039 -32.6443
   -32.5181 -32.5019 -32.4662 -32.4615 -32.4546 -32.4234 -32.4180 -32.4135
   -32.4105 -32.3962 -32.3827 -32.3789 -32.3470 -32.3269 -32.3064 -32.3014
   -32.2661 -32.2524 -32.2354 -32.2244 -32.2061 -32.1781 -32.1519 -32.1414
   -32.1183 -32.1028 -32.0898 -32.0860 -32.0782 -32.0731 -32.0532 -31.9479
   -31.8973 -31.8884 -31.8199 -31.6428 -31.6109 -31.5603 -31.5446 -31.4378
   -19.8653 -17.0442 -16.8015 -16.6146 -16.5303 -16.4430 -16.3311 -16.2764
   -16.2669 -16.2293 -16.1831 -16.1480 -16.0927 -16.0503 -16.0380 -15.9578
   -15.8763 -15.8447 -15.7857 -15.7450 -15.6883 -15.6583 -15.6440 -15.5745
   -15.5599 -15.4751 -15.4217 -15.3828 -15.2774 -15.1548 -14.3703 -14.2938
   -13.1320  -4.3003  -4.0920  -4.0740  -4.0260  -3.9385  -3.8172  -3.7829
    -3.7434  -3.6442  -3.6338  -3.5332  -3.4965  -3.4665  -3.4527  -3.3861
    -3.3753  -3.3430  -3.3110  -3.2766  -3.2029  -3.1670  -3.0828  -3.0536
    -3.0446  -2.9552  -2.9445  -2.9143  -2.8772  -2.8532  -2.8144  -2.8106
    -2.7483  -2.6637  -2.6242  -2.5852  -2.5198  -2.4695  -2.3997  -2.3662
    -2.2112  -2.1673  -2.1289  -2.0113  -1.9765  -1.9382  -1.9164  -1.8406
    -1.7555  -1.7321  -1.6933  -1.6422  -1.6077  -1.5543  -1.4612  -1.4517
    -1.4321  -1.3895  -1.3376  -1.3097  -1.2229  -1.1957  -1.1668  -1.1330
    -1.0783  -1.0535  -1.0210  -0.9830  -0.9560  -0.9310  -0.8257  -0.7666
    -0.7435  -0.7293  -0.6735  -0.6305  -0.5960  -0.5075  -0.4653  -0.4437
    -0.3870  -0.2926  -0.2176  -0.1936  -0.1655  -0.1331  -0.0242   0.0044
     0.0403   0.0930   0.1425   0.2033   0.3768   0.4719   0.5571   0.6759
     0.6969   0.7798   1.5993   2.0585   2.5311   2.6706   2.7544   2.8834
     3.1146   3.1834   3.2047   3.2243   3.2700   3.2991

          k =-0.0760-0.0000 0.0000 ( 25092 PWs)   bands (ev):

   -57.0399 -56.9900 -56.2823 -56.2726 -56.2481 -56.2372 -56.1252 -56.0904
   -56.0418 -56.0066 -55.9908 -55.9229 -55.7957 -55.7617 -55.4443 -55.3714
   -33.4105 -33.2449 -33.1904 -33.1699 -33.0766 -33.0345 -32.7608 -32.7002
   -32.5564 -32.5289 -32.4714 -32.4598 -32.4579 -32.4572 -32.4559 -32.4127
   -32.4020 -32.3665 -32.3508 -32.3488 -32.3333 -32.3211 -32.3140 -32.3067
   -32.2837 -32.2476 -32.2221 -32.2165 -32.1938 -32.1677 -32.1549 -32.1385
   -32.1286 -32.0929 -32.0801 -32.0772 -32.0593 -32.0478 -32.0359 -31.9601
   -31.9389 -31.8759 -31.7628 -31.6222 -31.6143 -31.5602 -31.5427 -31.4124
   -19.8654 -16.9685 -16.8802 -16.7133 -16.6645 -16.5121 -16.3374 -16.3060
   -16.2912 -16.2042 -16.1585 -16.1377 -16.0911 -16.0820 -16.0544 -16.0148
   -15.9268 -15.8801 -15.8476 -15.8165 -15.6803 -15.6023 -15.5251 -15.5090
   -15.4554 -15.4327 -15.3823 -15.3680 -15.2441 -15.0848 -14.3611 -14.2527
   -13.1293  -4.2494  -4.1093  -4.0889  -4.0735  -4.0380  -3.9714  -3.8305
    -3.7925  -3.7672  -3.7230  -3.5737  -3.5631  -3.5145  -3.4816  -3.4320
    -3.4232  -3.3370  -3.2565  -3.1313  -3.1278  -3.0985  -2.9876  -2.9434
    -2.9245  -2.9008  -2.8442  -2.8326  -2.7881  -2.7224  -2.6371  -2.5793
    -2.5187  -2.4866  -2.4555  -2.4316  -2.4170  -2.3777  -2.3455  -2.3430
    -2.3413  -2.2930  -2.2592  -2.1615  -2.1428  -2.0755  -2.0231  -1.9527
    -1.9122  -1.8703  -1.8400  -1.8121  -1.7434  -1.5526  -1.5317  -1.5124
    -1.4989  -1.4701  -1.4283  -1.3480  -1.2556  -1.2351  -1.1307  -1.1181
    -1.1005  -1.0720  -0.9526  -0.9461  -0.9052  -0.8416  -0.7234  -0.6865
    -0.6731  -0.6288  -0.6028  -0.5705  -0.5456  -0.5047  -0.4856  -0.3906
    -0.3428  -0.2213  -0.2013  -0.1590  -0.1444  -0.0576  -0.0264   0.0023
     0.0610   0.1250   0.1440   0.2598   0.3240   0.3552   0.3931   0.5218
     0.5585   0.7023   1.5659   1.9751   2.4282   2.5461   2.5769   2.7404
     2.9959   3.1900   3.1949   3.2266   3.2339   3.2570

          k =-0.0760 0.0419 0.0000 ( 25078 PWs)   bands (ev):

   -57.0369 -56.9930 -56.2774 -56.2674 -56.2530 -56.2424 -56.1202 -56.0953
   -56.0368 -56.0116 -55.9885 -55.9252 -55.7907 -55.7667 -55.4422 -55.3735
   -33.3574 -33.2431 -33.1922 -33.1583 -33.0908 -33.0885 -32.7041 -32.6472
   -32.5182 -32.5031 -32.4662 -32.4615 -32.4435 -32.4275 -32.4219 -32.4151
   -32.4071 -32.3972 -32.3813 -32.3789 -32.3332 -32.3270 -32.3064 -32.3014
   -32.2752 -32.2519 -32.2354 -32.2244 -32.2038 -32.1846 -32.1524 -32.1412
   -32.1186 -32.1039 -32.0895 -32.0858 -32.0782 -32.0752 -32.0524 -31.9479
   -31.8970 -31.8884 -31.8199 -31.6428 -31.6123 -31.5603 -31.5447 -31.4378
   -19.8653 -16.8514 -16.7719 -16.6720 -16.6026 -16.4116 -16.3029 -16.2945
   -16.2616 -16.1948 -16.1834 -16.1228 -16.0988 -16.0545 -16.0530 -15.9885
   -15.8755 -15.8528 -15.8488 -15.8149 -15.7288 -15.6506 -15.6438 -15.6237
   -15.5454 -15.4694 -15.4197 -15.3991 -15.2752 -15.1541 -14.3684 -14.2941
   -13.1317  -4.0817  -4.0704  -4.0177  -3.8936  -3.8816  -3.8037  -3.7189
    -3.6251  -3.5371  -3.5229  -3.4923  -3.4416  -3.4057  -3.3798  -3.3399
    -3.2975  -3.2729  -3.2377  -3.2206  -3.1819  -3.1787  -3.1254  -3.0487
    -2.9968  -2.9804  -2.9077  -2.8656  -2.8226  -2.7879  -2.7684  -2.7293
    -2.6151  -2.5879  -2.5589  -2.5209  -2.5107  -2.4738  -2.3598  -2.3368
    -2.2842  -2.2245  -2.1458  -2.0842  -2.0693  -2.0380  -1.9459  -1.8542
    -1.8234  -1.7994  -1.7924  -1.7596  -1.7083  -1.6591  -1.6376  -1.5655
    -1.4494  -1.4331  -1.4120  -1.3674  -1.3254  -1.3038  -1.2821  -1.2501
    -1.2090  -1.1788  -1.1146  -1.0944  -1.0746  -0.9720  -0.9269  -0.8941
    -0.8632  -0.8068  -0.7477  -0.7282  -0.6767  -0.6284  -0.5702  -0.4766
    -0.2672  -0.2448  -0.2227  -0.1127  -0.0851  -0.0703   0.0021   0.0651
     0.1204   0.1452   0.1994   0.2729   0.3296   0.4790   0.4910   0.6104
     0.6148   0.7394   1.6104   2.0539   2.5371   2.6486   2.7306   2.8089
     3.1567   3.2152   3.2231   3.2582   3.2746   3.3044

          k =-0.0760-0.0839 0.0000 ( 25128 PWs)   bands (ev):

   -57.0335 -56.9966 -56.2671 -56.2634 -56.2553 -56.2546 -56.1105 -56.1052
   -56.0269 -56.0215 -55.9861 -55.9277 -55.7787 -55.7787 -55.4400 -55.3758
   -33.2411 -33.2406 -33.2107 -33.1942 -33.1396 -33.1074 -32.5678 -32.5671
   -32.5194 -32.5163 -32.4797 -32.4786 -32.4462 -32.4454 -32.4177 -32.4153
   -32.4054 -32.4033 -32.3831 -32.3393 -32.3257 -32.3147 -32.2738 -32.2650
   -32.2637 -32.2609 -32.2606 -32.2563 -32.2530 -32.2076 -32.1753 -32.1700
   -32.1589 -32.1480 -32.1178 -32.0795 -32.0637 -32.0637 -31.9550 -31.9549
   -31.9183 -31.9183 -31.8348 -31.6883 -31.6101 -31.5543 -31.5468 -31.4645
   -19.8652 -16.6204 -16.6196 -16.5733 -16.5526 -16.4409 -16.4367 -16.2717
   -16.2642 -16.2353 -16.1526 -16.0558 -16.0545 -15.9936 -15.9447 -15.8770
   -15.8447 -15.8407 -15.8206 -15.8024 -15.7990 -15.7662 -15.7610 -15.7409
   -15.7328 -15.5167 -15.4594 -15.4335 -15.3179 -15.2309 -14.3574 -14.3546
   -13.1341  -4.0652  -4.0049  -3.8297  -3.7277  -3.7248  -3.5865  -3.5815
    -3.4948  -3.4208  -3.4060  -3.3981  -3.3752  -3.3748  -3.2743  -3.2689
    -3.1373  -3.1347  -3.0940  -3.0914  -3.0522  -3.0401  -3.0157  -2.9600
    -2.9317  -2.9289  -2.9072  -2.9020  -2.8806  -2.8482  -2.8203  -2.8087
    -2.7599  -2.6992  -2.6606  -2.5888  -2.5673  -2.5629  -2.5291  -2.4651
    -2.3832  -2.3515  -2.2847  -2.2082  -2.1982  -2.1200  -2.0186  -1.9468
    -1.9323  -1.8967  -1.8675  -1.7339  -1.7201  -1.7057  -1.6814  -1.6316
    -1.6046  -1.5647  -1.4985  -1.3854  -1.3611  -1.3374  -1.3203  -1.2528
    -1.2416  -1.2396  -1.1955  -1.1049  -1.0769  -1.0532  -1.0380  -0.9745
    -0.9668  -0.9098  -0.8671  -0.7349  -0.7141  -0.6505  -0.6284  -0.6193
    -0.5885  -0.1951  -0.1242  -0.0826  -0.0498   0.0431   0.0798   0.1041
     0.1317   0.1930   0.2561   0.3309   0.3676   0.4668   0.6240   0.6306
     0.6668   0.6764   1.6717   2.1104   2.7778   2.8075   2.8611   2.8977
     3.1835   3.2127   3.2346   3.2685   3.2832   3.3041

     the Fermi energy is     2.1909 ev

!    total energy              =   -3301.30717281 Ry
     estimated scf accuracy    <       0.00000005 Ry
     smearing contrib. (-TS)   =      -0.00002701 Ry
     internal energy E=F+TS    =   -3301.30714580 Ry

     The total energy is F=E-TS. E is the sum of the following terms:
     one-electron contribution =  -24007.17611473 Ry
     hartree contribution      =   12094.75431214 Ry
     xc contribution           =    -556.05578730 Ry
     ewald contribution        =    9485.63630836 Ry
     electric field correction =       0.00023740 Ry
     one-center paw contrib.   =    -318.46610168 Ry

     total magnetization       =    -0.00 Bohr mag/cell
     absolute magnetization    =     0.00 Bohr mag/cell

     convergence has been achieved in  26 iterations

     negative rho (up, down):  1.096E-02 1.096E-02

     Forces acting on atoms (cartesian axes, Ry/au):

     atom    1 type  1   force =     0.00009730   -0.00003746    0.13664779
     atom    2 type  1   force =    -0.00011791    0.00026732   -0.16690529
     atom    3 type  2   force =    -0.00015710   -0.00010812   -0.07346623
     atom    4 type  2   force =     0.00001712    0.00005923    0.02789342
     atom    5 type  2   force =    -0.02674579    0.00008461   -0.00353536
     atom    6 type  2   force =     0.02623847    0.00048475   -0.00500736
     atom    7 type  1   force =    -0.00164243    0.00043535    0.02130898
     atom    8 type  1   force =     0.00128130   -0.01824147    0.05654617
     atom    9 type  2   force =     0.00037938   -0.00015120    0.00042489
     atom   10 type  2   force =    -0.00036637    0.00036995   -0.03596382
     atom   11 type  2   force =     0.00122378   -0.00050357   -0.00018738
     atom   12 type  2   force =    -0.00000927   -0.00005700    0.00010914
     atom   13 type  1   force =    -0.00083949   -0.00030531    0.00006623
     atom   14 type  1   force =     0.00109533   -0.00059499    0.00001448
     atom   15 type  2   force =     0.00041267   -0.00011661   -0.00012684
     atom   16 type  2   force =     0.00014268   -0.00032178    0.00022916
     atom   17 type  2   force =    -0.00096900    0.00026726   -0.00023021
     atom   18 type  2   force =     0.00061714    0.00020726   -0.00014715
     atom   19 type  1   force =     0.00030368   -0.00004896    0.00000763
     atom   20 type  1   force =    -0.00067001   -0.00024171    0.00097252
     atom   21 type  2   force =     0.00006574    0.00009264    0.09993752
     atom   22 type  2   force =    -0.00035531    0.00110061   -0.00035560
     atom   23 type  2   force =    -0.07517000    0.00141926   -0.03406293
     atom   24 type  2   force =     0.07506530    0.00185404   -0.03409327
     atom   25 type  1   force =     0.00009157   -0.00010853    0.14607643
     atom   26 type  1   force =    -0.00012271   -0.00038443   -0.16686902
     atom   27 type  2   force =    -0.00018841   -0.00009048   -0.07138447
     atom   28 type  2   force =     0.00000396    0.00001117    0.02794278
     atom   29 type  2   force =    -0.02661965   -0.00064432   -0.00349436
     atom   30 type  2   force =     0.02611377   -0.00009203   -0.00496777
     atom   31 type  1   force =    -0.00164080   -0.00039447    0.02114485
     atom   32 type  1   force =     0.00128170    0.01810798    0.05631723
     atom   33 type  2   force =     0.00054429   -0.00018929    0.00055966
     atom   34 type  2   force =    -0.00028815    0.00079282   -0.02615636
     atom   35 type  2   force =     0.00092599    0.00020451   -0.00023641
     atom   36 type  2   force =    -0.00007591    0.00001325   -0.00001494
     atom   37 type  1   force =    -0.00059731   -0.00040885   -0.00020611
     atom   38 type  1   force =     0.00111599    0.00037357   -0.00002804
     atom   39 type  2   force =     0.00016666   -0.00040567    0.00026988
     atom   40 type  2   force =     0.00030035   -0.00016138   -0.00013797
     atom   41 type  2   force =    -0.00053879   -0.00011877   -0.00012359
     atom   42 type  2   force =     0.00013510    0.00005193   -0.00006992
     atom   43 type  1   force =     0.00001247   -0.00049086   -0.00100488
     atom   44 type  1   force =    -0.00052716    0.00041581    0.00063638
     atom   45 type  2   force =     0.00006548    0.00009229    0.10002525
     atom   46 type  3   force =     0.00041409   -0.00024797    0.00018103
     atom   47 type  2   force =    -0.07517132   -0.00169909   -0.03406483
     atom   48 type  2   force =     0.07507320   -0.00126384   -0.03409561
     atom   49 type  4   force =    -0.00084472    0.00035764   -0.00006489
     atom   50 type  4   force =     0.00047309    0.00036490   -0.00031081

     Total force =     0.409623     Total SCF correction =     0.000750
  @ DRIVER MODE: Message from server: STATUS
  @ DRIVER MODE: Message from server: GETFORCE
  @ DRIVER MODE: Returning v,forces,stress,ensemble 

     Writing output data file ./calc.save/
  @ DRIVER MODE: Message from server: STATUS
  @ DRIVER MODE: Message from server: INIT
  @ DRIVER MODE: Receiving replica           0           0
  @ DRIVER MODE: Receiving encoded integer          25
  @ DRIVER MODE:  SCF:  T  FORCE:  T  STRESS:  F  VC:  F  ENSEMBLE:  F
  @ DRIVER MODE:  SCF:  T  FORCE:  T  STRESS:  F  VC:  F  ENSEMBLE:  F
  @ DRIVER MODE: Message from server: STATUS
  @ DRIVER MODE: Message from server: POSDATA
  @ DRIVER MODE: Reading and sharing positions 
  @ DRIVER MODE: Received positions 
     NEW-OLD atomic charge density approx. for the potential

     Check: negative core charge=   -0.000008

     negative rho (up, down):  1.091E-02 1.091E-02
 
     Adding external electric field

     Computed dipole along edir(3) : 
        Dipole               -0.3287 Ry au,         -0.8355 Debye
        Dipole field         -0.0006 Ry au, 
 
        Potential amp.        0.0575 Ry
        Total length         46.3494 bohr
 
 
     Adding external electric field

     Computed dipole along edir(3) : 
        Dipole               -0.3287 Ry au,         -0.8355 Debye
        Dipole field         -0.0006 Ry au, 
 
        Potential amp.        0.0575 Ry
        Total length         46.3494 bohr
 
     Generating pointlists ...

     total cpu time spent up to now is    35848.6 secs

     Self-consistent Calculation

     iteration #  1     ecut=    36.75 Ry     beta= 0.05
     Davidson diagonalization with overlap
     c_bands:  4 eigenvalues not converged
     c_bands:  3 eigenvalues not converged
     c_bands:  4 eigenvalues not converged
     c_bands:  3 eigenvalues not converged
     c_bands:  4 eigenvalues not converged
     c_bands:  2 eigenvalues not converged
     c_bands:  2 eigenvalues not converged
     c_bands:  4 eigenvalues not converged
     c_bands:  2 eigenvalues not converged
     c_bands:  5 eigenvalues not converged
     c_bands:  4 eigenvalues not converged
     c_bands:  3 eigenvalues not converged
     c_bands:  4 eigenvalues not converged
     c_bands:  3 eigenvalues not converged
     c_bands:  4 eigenvalues not converged
     c_bands:  2 eigenvalues not converged
     c_bands:  2 eigenvalues not converged
     c_bands:  4 eigenvalues not converged
     c_bands:  2 eigenvalues not converged
     ethr =  2.02E-11,  avg # of iterations = 20.5

     negative rho (up, down):  1.091E-02 1.091E-02
 
     Adding external electric field

     Computed dipole along edir(3) : 
        Dipole               -0.3407 Ry au,         -0.8660 Debye
        Dipole field         -0.0006 Ry au, 
 
        Potential amp.        0.0596 Ry
        Total length         46.3494 bohr
 
 
     Adding external electric field

     Computed dipole along edir(3) : 
        Dipole               -0.3407 Ry au,         -0.8660 Debye
        Dipole field         -0.0006 Ry au, 
 
        Potential amp.        0.0596 Ry
        Total length         46.3494 bohr
 

     total cpu time spent up to now is    35971.5 secs

     total energy              =   -3301.30724185 Ry
     estimated scf accuracy    <       0.00054448 Ry

     total magnetization       =    -0.00 Bohr mag/cell
     absolute magnetization    =     0.00 Bohr mag/cell

     iteration #  2     ecut=    36.75 Ry     beta= 0.05
     Davidson diagonalization with overlap
     ethr =  1.39E-07,  avg # of iterations =  1.9

     negative rho (up, down):  1.091E-02 1.091E-02
 
     Adding external electric field

     Computed dipole along edir(3) : 
        Dipole               -0.3679 Ry au,         -0.9350 Debye
        Dipole field         -0.0007 Ry au, 
 
        Potential amp.        0.0644 Ry
        Total length         46.3494 bohr
 
 
     Adding external electric field

     Computed dipole along edir(3) : 
        Dipole               -0.3679 Ry au,         -0.9350 Debye
        Dipole field         -0.0007 Ry au, 
 
        Potential amp.        0.0644 Ry
        Total length         46.3494 bohr
 

     total cpu time spent up to now is    35990.6 secs

     total energy              =   -3301.30716772 Ry
     estimated scf accuracy    <       0.00032382 Ry

     total magnetization       =    -0.00 Bohr mag/cell
     absolute magnetization    =     0.00 Bohr mag/cell

     iteration #  3     ecut=    36.75 Ry     beta= 0.05
     Davidson diagonalization with overlap
