
     Program PWSCF v.6.7GPU starts on 16Feb2022 at 11: 3:17 

     This program is part of the open-source Quantum ESPRESSO suite
     for quantum simulation of materials; please cite
         "P. Giannozzi et al., J. Phys.:Condens. Matter 21 395502 (2009);
         "P. Giannozzi et al., J. Phys.:Condens. Matter 29 465901 (2017);
         "P. Giannozzi et al., J. Chem. Phys. 152 154105 (2020);
          URL http://www.quantum-espresso.org", 
     in publications or presentations arising from this work. More details at
     http://www.quantum-espresso.org/quote

     Parallel version (MPI), running on    16 processors

     MPI processes distributed on     1 nodes
     R & G space division:  proc/nbgrp/npool/nimage =      16
     Reading input from /storage/coda1/p-amedford6/0/bchen380/B22/O2_B/qe_3984407.sched-torque.pace.gatech.edu/pw.inp
Warning: card &CELL ignored
Warning: card   CELL_DYNAMICS='IPI', ignored
Warning: card / ignored

     Current dimensions of program PWSCF are:
     Max number of different atomic species (ntypx) = 10
     Max number of k-points (npk) =  40000
     Max angular momentum in pseudopotentials (lmaxx) =  3
     Message from routine cell_base_init:
     DEPRECATED: use true lattice parameter, not A to a.u. conversion factor
     file O.UPF: wavefunction(s)  2P renormalized

     **************************************************************************
     Initializing libbeef V0.1.2 with the BEEF-vdW functional.
     Citation: Wellendorff et al., PRB 85, 235149 (2012).
     **************************************************************************


     IMPORTANT: XC functional enforced from input :
     Exchange-correlation= BEEF-VDW
                           (   1   4  43  14   2   0   0)
     Any further DFT definition will be discarded
     Please, verify this is what you really want


     Subspace diagonalization in iterative solution of the eigenvalue problem:
     one sub-group per band group will be used
     scalapack distributed-memory algorithm (size of sub-group:  4*  4 procs)

  @ DRIVER MODE: Connecting to 
 qe_1064200_3984407.sched-torque.pace.gatech.edup9ela1s6_scratch
  using UNIX socket
  @ DRIVER MODE: Message from server: STATUS
  @ DRIVER MODE: Message from server: INIT
  @ DRIVER MODE: Receiving replica           0          -1
  @ DRIVER MODE: Receiving encoded integer          25
  @ DRIVER MODE:  SCF:  T  FORCE:  T  STRESS:  F  VC:  F  ENSEMBLE:  F
  @ DRIVER MODE:  SCF:  T  FORCE:  T  STRESS:  F  VC:  F  ENSEMBLE:  F
 
     Parallelization info
     --------------------
     sticks:   dense  smooth     PW     G-vecs:    dense   smooth      PW
     Min         256     102     28                49498    12526    1868
     Max         257     103     29                49510    12535    1881
     Sum        4097    1637    459               792059   200495   30031
 
     Using Slab Decomposition
 


     bravais-lattice index     =            0
     lattice parameter (alat)  =       1.8897  a.u.
     unit-cell volume          =    6658.9804 (a.u.)^3
     number of atoms/cell      =           50
     number of atomic types    =            3
     number of electrons       =       393.00
     number of Kohn-Sham states=          206
     kinetic-energy cutoff     =      36.7493  Ry
     charge density cutoff     =     367.4932  Ry
     scf convergence threshold =      7.3E-08
     mixing beta               =       0.0500
     number of iterations used =            8  plain     mixing
     Exchange-correlation= BEEF-VDW
                           (   1   4  43  14   2   0   0)

     celldm(1)=   1.889726  celldm(2)=   0.000000  celldm(3)=   0.000000
     celldm(4)=   0.000000  celldm(5)=   0.000000  celldm(6)=   0.000000

     crystal axes: (cart. coord. in units of alat)
               a(1) = (   6.579727   0.000000   0.000000 )  
               a(2) = (  -0.000775   5.961596   0.000000 )  
               a(3) = (   0.000000   0.000000  25.155947 )  

     reciprocal axes: (cart. coord. in units 2 pi/alat)
               b(1) = (  0.151982  0.000020  0.000000 )  
               b(2) = (  0.000000  0.167740  0.000000 )  
               b(3) = (  0.000000  0.000000  0.039752 )  


     PseudoPot. # 1 for Ti read from file:
     /storage/coda1/p-amedford6/0/shared/rich_project_chbe-medford/medford-share/data/pseudos_module/espresso/esp_pseudos_old/Ti.UPF
     MD5 check sum: 88a00a6731bd790ddea75d31a80cb452
     Pseudo is Ultrasoft + core correction, Zval = 12.0
     Generated by new atomic code, or converted to UPF format
     Using radial grid of  851 points,  6 beta functions with: 
                l(1) =   0
                l(2) =   0
                l(3) =   1
                l(4) =   1
                l(5) =   2
                l(6) =   2
     Q(r) pseudized with  6 coefficients,  rinner =    1.000   1.000   1.000
                                                       1.000   1.000

     PseudoPot. # 2 for O  read from file:
     /storage/coda1/p-amedford6/0/shared/rich_project_chbe-medford/medford-share/data/pseudos_module/espresso/esp_pseudos_old/O.UPF
     MD5 check sum: 0234752ac141de4415c5fc33072bef88
     Pseudo is Projector augmented-wave + core cor, Zval =  6.0
     Generated using "atomic" code by A. Dal Corso  v.5.0.99 svn rev. 10869
     Shape of augmentation charge: BESSEL
     Using radial grid of 1095 points,  4 beta functions with: 
                l(1) =   0
                l(2) =   0
                l(3) =   1
                l(4) =   1
     Q(r) pseudized with 0 coefficients 


     PseudoPot. # 3 for B  read from file:
     /storage/coda1/p-amedford6/0/shared/rich_project_chbe-medford/medford-share/data/pseudos_module/espresso/esp_pseudos_old/B.UPF
     MD5 check sum: cc6de2960df11db49a60e589f9ebb39b
     Pseudo is Ultrasoft + core correction, Zval =  3.0
     Generated by new atomic code, or converted to UPF format
     Using radial grid of  781 points,  4 beta functions with: 
                l(1) =   0
                l(2) =   0
                l(3) =   1
                l(4) =   1
     Q(r) pseudized with  8 coefficients,  rinner =    1.100   1.100   1.100


     atomic species   valence    mass     pseudopotential
        Ti1           12.00    47.86700     Ti( 1.00)
        O1             6.00    15.99900     O ( 1.00)
        B1             3.00    10.81000     B ( 1.00)

     Starting magnetic structure 
     atomic species   magnetization
        Ti1          0.000
        O1           0.000
        B1           0.000

     No symmetry found



   Cartesian axes

     site n.     atom                  positions (alat units)
         1           Ti1 tau(   1) = (   0.0004258   2.9801865   6.0000000  )
         2           Ti1 tau(   2) = (   3.2906075   1.4906267   6.0002472  )
         3           O1  tau(   3) = (   0.0006271   0.0005054   7.9858123  )
         4           O1  tau(   4) = (   3.2906025   0.0005020   7.3038282  )
         5           O1  tau(   5) = (   4.5942328   1.4918067   9.2879030  )
         6           O1  tau(   6) = (   1.9868534   1.4903216   9.2879459  )
         7           Ti1 tau(   7) = (   3.2905683   2.9818392   9.1597947  )
         8           Ti1 tau(   8) = (   0.0009689   1.5052867   9.3302970  )
         9           O1  tau(   9) = (   3.2907689   0.0016648  11.3563317  )
        10           O1  tau(  10) = (   0.0007044   0.0001637  10.5878211  )
        11           O1  tau(  11) = (   1.3004573   1.4911895  12.6196604  )
        12           O1  tau(  12) = (   5.2803146   1.4910465  12.6198809  )
        13           Ti1 tau(  13) = (   0.0003545   2.9813121  12.7572432  )
        14           Ti1 tau(  14) = (   3.2903971   1.4912328  12.5002874  )
        15           O1  tau(  15) = (  -0.0002320   5.9576404  14.5977444  )
        16           O1  tau(  16) = (   3.2901645   0.0058045  13.9855309  )
        17           O1  tau(  17) = (   4.5492778   1.5221801  16.1329724  )
        18           O1  tau(  18) = (   2.0311275   1.5222091  16.1330501  )
        19           Ti1 tau(  19) = (   3.2902041   2.9895352  15.7368220  )
        20           Ti1 tau(  20) = (   0.0001478   1.4235607  15.9669019  )
        21           O1  tau(  21) = (   3.2904802   0.0005063   4.7018136  )
        22           O1  tau(  22) = (   0.0000052   5.9613278  17.1620205  )
        23           O1  tau(  23) = (   1.3043587   1.4918075   6.0039043  )
        24           O1  tau(  24) = (   5.2767064   1.4903225   6.0039473  )
        25           Ti1 tau(  25) = (   0.0000382   5.9609847   6.0000000  )
        26           Ti1 tau(  26) = (   3.2902200   4.4714249   6.0002472  )
        27           O1  tau(  27) = (   0.0002396   2.9813036   7.9858123  )
        28           O1  tau(  28) = (   3.2902150   2.9813002   7.3038282  )
        29           O1  tau(  29) = (   4.5938453   4.4726049   9.2879030  )
        30           O1  tau(  30) = (   1.9864658   4.4711199   9.2879459  )
        31           Ti1 tau(  31) = (   3.2909982   0.0016570   9.1583503  )
        32           Ti1 tau(  32) = (   0.0005865   4.4518293   9.3323505  )
        33           O1  tau(  33) = (   3.2903422   2.9801403  11.3468332  )
        34           O1  tau(  34) = (   0.0003571   2.9798178  10.5649370  )
        35           O1  tau(  35) = (   1.3005412   4.4692167  12.6173387  )
        36           O1  tau(  36) = (   5.2794693   4.4690741  12.6175999  )
        37           Ti1 tau(  37) = (  -0.0000806   5.9612980  12.5816508  )
        38           Ti1 tau(  38) = (   3.2900041   4.4658170  12.4917948  )
        39           O1  tau(  39) = (   0.0004188   2.9814100  14.6485654  )
        40           O1  tau(  40) = (   3.2900918   2.9860882  13.9373905  )
        41           O1  tau(  41) = (   4.5492228   4.4522151  16.1330783  )
        42           O1  tau(  42) = (   2.0303863   4.4519659  16.1333203  )
        43           Ti1 tau(  43) = (   3.2899546   0.0061948  15.7807570  )
        44           Ti1 tau(  44) = (  -0.0001637   4.5606593  15.9768108  )
        45           O1  tau(  45) = (   3.2900926   2.9813045   4.7018136  )
        46           B1  tau(  46) = (   6.5792260   2.9590799  17.8640153  )
        47           O1  tau(  47) = (   1.3039711   4.4726057   6.0039043  )
        48           O1  tau(  48) = (   5.2763189   4.4711207   6.0039473  )
        49           O1  tau(  49) = (   6.3491669   2.7825235  19.0640153  )
        50           O1  tau(  50) = (   6.2271734   2.6017940  20.1640153  )

     number of k points=    10  Fermi-Dirac smearing, width (Ry)=  0.0007
                       cart. coord. in units 2pi/alat
        k(    1) = (   0.0000000   0.0000000   0.0000000), wk =   0.0625000
        k(    2) = (   0.0000000   0.0419351   0.0000000), wk =   0.1250000
        k(    3) = (   0.0000000  -0.0838702   0.0000000), wk =   0.0625000
        k(    4) = (   0.0379955   0.0000049   0.0000000), wk =   0.1250000
        k(    5) = (   0.0379955   0.0419400   0.0000000), wk =   0.1250000
        k(    6) = (   0.0379955  -0.0838652   0.0000000), wk =   0.1250000
        k(    7) = (   0.0379955  -0.0419301   0.0000000), wk =   0.1250000
        k(    8) = (  -0.0759910  -0.0000099   0.0000000), wk =   0.0625000
        k(    9) = (  -0.0759910   0.0419252   0.0000000), wk =   0.1250000
        k(   10) = (  -0.0759910  -0.0838800   0.0000000), wk =   0.0625000

     Dense  grid:   792059 G-vectors     FFT dimensions: (  75,  72, 300)

     Smooth grid:   200495 G-vectors     FFT dimensions: (  48,  45, 192)

     Estimated max dynamical RAM per process >     385.45 MB

     Estimated total dynamical RAM >       6.02 GB

     Check: negative core charge=   -0.000008
     Generating pointlists ...
     new r_m :   0.7405 (alat units)  1.3994 (a.u.) for type    1
     new r_m :   0.4626 (alat units)  0.8741 (a.u.) for type    2
     new r_m :   0.5092 (alat units)  0.9623 (a.u.) for type    3

     Initial potential from superposition of free atoms

     starting charge  376.99896, renormalised to  393.00000

     negative rho (up, down):  1.160E-02 1.160E-02


     %%%%%%%%%%%%%%%%%%%%%%%%%%%%%%%%%%%%%%%%%%%%%%%%%%%%%%%%%%%%%%%%%%%%%%%%
     %                                                                      %
     % You are using vdW-DF, which was implemented by the Thonhauser group. %
     % Please cite the following two papers that made this development      %
     % possible and the two reviews that describe the various versions:     %
     %                                                                      %
     %   T. Thonhauser et al., PRL 115, 136402 (2015).                      %
     %   T. Thonhauser et al., PRB 76, 125112 (2007).                       %
     %   K. Berland et al., Rep. Prog. Phys. 78, 066501 (2015).             %
     %   D.C. Langreth et al., J. Phys.: Condens. Matter 21, 084203 (2009). %
     %                                                                      %
     %                                                                      %
     % If you are calculating the stress with vdW-DF, please also cite:     %
     %                                                                      %
     %   R. Sabatini et al., J. Phys.: Condens. Matter 24, 424209 (2012).   %
     %                                                                      %
     %%%%%%%%%%%%%%%%%%%%%%%%%%%%%%%%%%%%%%%%%%%%%%%%%%%%%%%%%%%%%%%%%%%%%%%%


 
     Adding external electric field

     Computed dipole along edir(3) : 
        Dipole               -7.9713 Ry au,        -20.2611 Debye
        Dipole field         -0.0150 Ry au, 
 
        Potential amp.        1.3945 Ry
        Total length         46.3494 bohr
 
 
     Adding external electric field

     Computed dipole along edir(3) : 
        Dipole               -7.9713 Ry au,        -20.2611 Debye
        Dipole field         -0.0150 Ry au, 
 
        Potential amp.        1.3945 Ry
        Total length         46.3494 bohr
 
     Starting wfcs are  296 randomized atomic wfcs
     Checking if some PAW data can be deallocated... 
  @ DRIVER MODE: Message from server: STATUS
  @ DRIVER MODE: Message from server: POSDATA
  @ DRIVER MODE: Reading and sharing cell 
  @ DRIVER MODE: Reading and sharing positions 
  @ DRIVER MODE: Received positions 

     total cpu time spent up to now is       34.9 secs

     Self-consistent Calculation

     iteration #  1     ecut=    36.75 Ry     beta= 0.05
     Davidson diagonalization with overlap
     ethr =  1.00E-02,  avg # of iterations =  2.0

     negative rho (up, down):  1.070E-02 1.070E-02
 
     Adding external electric field

     Computed dipole along edir(3) : 
        Dipole               31.3384 Ry au,         79.6543 Debye
        Dipole field          0.0591 Ry au, 
 
        Potential amp.       -5.4822 Ry
        Total length         46.3494 bohr
 
 
     Adding external electric field

     Computed dipole along edir(3) : 
        Dipole               31.3384 Ry au,         79.6543 Debye
        Dipole field          0.0591 Ry au, 
 
        Potential amp.       -5.4822 Ry
        Total length         46.3494 bohr
 

     total cpu time spent up to now is       78.4 secs

     total energy              =   -3112.56141066 Ry
     estimated scf accuracy    <    2463.63531515 Ry

     total magnetization       =    -0.00 Bohr mag/cell
     absolute magnetization    =     0.09 Bohr mag/cell

     iteration #  2     ecut=    36.75 Ry     beta= 0.05
     Davidson diagonalization with overlap
     ethr =  1.00E-02,  avg # of iterations = 14.6

     negative rho (up, down):  1.019E-02 1.019E-02
 
     Adding external electric field

     Computed dipole along edir(3) : 
        Dipole               -3.4282 Ry au,         -8.7136 Debye
        Dipole field         -0.0065 Ry au, 
 
        Potential amp.        0.5997 Ry
        Total length         46.3494 bohr
 
 
     Adding external electric field

     Computed dipole along edir(3) : 
        Dipole               -3.4282 Ry au,         -8.7136 Debye
        Dipole field         -0.0065 Ry au, 
 
        Potential amp.        0.5997 Ry
        Total length         46.3494 bohr
 

     total cpu time spent up to now is      251.1 secs

     total energy              =   -2971.01254999 Ry
     estimated scf accuracy    <   47531.95048374 Ry

     total magnetization       =     0.14 Bohr mag/cell
     absolute magnetization    =     0.68 Bohr mag/cell

     iteration #  3     ecut=    36.75 Ry     beta= 0.05
     Davidson diagonalization with overlap
     ethr =  1.00E-02,  avg # of iterations = 14.7

     negative rho (up, down):  1.007E-02 1.007E-02
 
     Adding external electric field

     Computed dipole along edir(3) : 
        Dipole               -4.7445 Ry au,        -12.0592 Debye
        Dipole field         -0.0090 Ry au, 
 
        Potential amp.        0.8300 Ry
        Total length         46.3494 bohr
 
 
     Adding external electric field

     Computed dipole along edir(3) : 
        Dipole               -4.7445 Ry au,        -12.0592 Debye
        Dipole field         -0.0090 Ry au, 
 
        Potential amp.        0.8300 Ry
        Total length         46.3494 bohr
 

     total cpu time spent up to now is      449.2 secs

     total energy              =   -3321.18207688 Ry
     estimated scf accuracy    <    1992.21695868 Ry

     total magnetization       =    -0.56 Bohr mag/cell
     absolute magnetization    =     0.75 Bohr mag/cell

     iteration #  4     ecut=    36.75 Ry     beta= 0.05
     Davidson diagonalization with overlap
     ethr =  1.00E-02,  avg # of iterations =  4.3

     negative rho (up, down):  1.006E-02 1.007E-02
 
     Adding external electric field

     Computed dipole along edir(3) : 
        Dipole               -6.3967 Ry au,        -16.2588 Debye
        Dipole field         -0.0121 Ry au, 
 
        Potential amp.        1.1190 Ry
        Total length         46.3494 bohr
 
 
     Adding external electric field

     Computed dipole along edir(3) : 
        Dipole               -6.3967 Ry au,        -16.2588 Debye
        Dipole field         -0.0121 Ry au, 
 
        Potential amp.        1.1190 Ry
        Total length         46.3494 bohr
 

     total cpu time spent up to now is      493.1 secs

     total energy              =   -3296.89546190 Ry
     estimated scf accuracy    <    1715.12887040 Ry

     total magnetization       =     0.34 Bohr mag/cell
     absolute magnetization    =     0.58 Bohr mag/cell

     iteration #  5     ecut=    36.75 Ry     beta= 0.05
     Davidson diagonalization with overlap
     ethr =  1.00E-02,  avg # of iterations =  9.6

     negative rho (up, down):  1.009E-02 1.008E-02
 
     Adding external electric field

     Computed dipole along edir(3) : 
        Dipole               -5.2220 Ry au,        -13.2731 Debye
        Dipole field         -0.0099 Ry au, 
 
        Potential amp.        0.9135 Ry
        Total length         46.3494 bohr
 
 
     Adding external electric field

     Computed dipole along edir(3) : 
        Dipole               -5.2220 Ry au,        -13.2731 Debye
        Dipole field         -0.0099 Ry au, 
 
        Potential amp.        0.9135 Ry
        Total length         46.3494 bohr
 

     total cpu time spent up to now is      573.2 secs

     total energy              =   -3336.07470604 Ry
     estimated scf accuracy    <      70.30785275 Ry

     total magnetization       =    -0.15 Bohr mag/cell
     absolute magnetization    =     0.30 Bohr mag/cell

     iteration #  6     ecut=    36.75 Ry     beta= 0.05
     Davidson diagonalization with overlap
     ethr =  1.00E-02,  avg # of iterations =  1.6

     negative rho (up, down):  1.065E-02 1.065E-02
 
     Adding external electric field

     Computed dipole along edir(3) : 
        Dipole               -0.4901 Ry au,         -1.2458 Debye
        Dipole field         -0.0009 Ry au, 
 
        Potential amp.        0.0857 Ry
        Total length         46.3494 bohr
 
 
     Adding external electric field

     Computed dipole along edir(3) : 
        Dipole               -0.4901 Ry au,         -1.2458 Debye
        Dipole field         -0.0009 Ry au, 
 
        Potential amp.        0.0857 Ry
        Total length         46.3494 bohr
 

     total cpu time spent up to now is      638.3 secs

     total energy              =   -3329.00165931 Ry
     estimated scf accuracy    <      61.12477262 Ry

     total magnetization       =    -0.12 Bohr mag/cell
     absolute magnetization    =     0.31 Bohr mag/cell

     iteration #  7     ecut=    36.75 Ry     beta= 0.05
     Davidson diagonalization with overlap
     ethr =  1.00E-02,  avg # of iterations =  7.0

     negative rho (up, down):  1.058E-02 1.058E-02
 
     Adding external electric field

     Computed dipole along edir(3) : 
        Dipole               -1.5335 Ry au,         -3.8979 Debye
        Dipole field         -0.0029 Ry au, 
 
        Potential amp.        0.2683 Ry
        Total length         46.3494 bohr
 
 
     Adding external electric field

     Computed dipole along edir(3) : 
        Dipole               -1.5335 Ry au,         -3.8979 Debye
        Dipole field         -0.0029 Ry au, 
 
        Potential amp.        0.2683 Ry
        Total length         46.3494 bohr
 

     total cpu time spent up to now is      686.9 secs

     total energy              =   -3333.95067696 Ry
     estimated scf accuracy    <     384.89543568 Ry

     total magnetization       =     0.03 Bohr mag/cell
     absolute magnetization    =     0.66 Bohr mag/cell

     iteration #  8     ecut=    36.75 Ry     beta= 0.05
     Davidson diagonalization with overlap
     ethr =  1.00E-02,  avg # of iterations =  1.9

     negative rho (up, down):  1.062E-02 1.062E-02
 
     Adding external electric field

     Computed dipole along edir(3) : 
        Dipole               -1.8590 Ry au,         -4.7252 Debye
        Dipole field         -0.0035 Ry au, 
 
        Potential amp.        0.3252 Ry
        Total length         46.3494 bohr
 
 
     Adding external electric field

     Computed dipole along edir(3) : 
        Dipole               -1.8590 Ry au,         -4.7252 Debye
        Dipole field         -0.0035 Ry au, 
 
        Potential amp.        0.3252 Ry
        Total length         46.3494 bohr
 

     total cpu time spent up to now is      714.4 secs

     total energy              =   -3334.77789792 Ry
     estimated scf accuracy    <     138.43419632 Ry

     total magnetization       =    -0.37 Bohr mag/cell
     absolute magnetization    =     0.88 Bohr mag/cell

     iteration #  9     ecut=    36.75 Ry     beta= 0.05
     Davidson diagonalization with overlap
     ethr =  1.00E-02,  avg # of iterations =  1.1

     negative rho (up, down):  1.062E-02 1.061E-02
 
     Adding external electric field

     Computed dipole along edir(3) : 
        Dipole               -1.6409 Ry au,         -4.1708 Debye
        Dipole field         -0.0031 Ry au, 
 
        Potential amp.        0.2871 Ry
        Total length         46.3494 bohr
 
 
     Adding external electric field

     Computed dipole along edir(3) : 
        Dipole               -1.6409 Ry au,         -4.1708 Debye
        Dipole field         -0.0031 Ry au, 
 
        Potential amp.        0.2871 Ry
        Total length         46.3494 bohr
 

     total cpu time spent up to now is      732.5 secs

     total energy              =   -3335.20810240 Ry
     estimated scf accuracy    <     133.23540988 Ry

     total magnetization       =    -0.20 Bohr mag/cell
     absolute magnetization    =     0.76 Bohr mag/cell

     iteration # 10     ecut=    36.75 Ry     beta= 0.05
     Davidson diagonalization with overlap
     ethr =  1.00E-02,  avg # of iterations =  1.0

     negative rho (up, down):  1.106E-02 1.109E-02
 
     Adding external electric field

     Computed dipole along edir(3) : 
        Dipole                0.1944 Ry au,          0.4942 Debye
        Dipole field          0.0004 Ry au, 
 
        Potential amp.       -0.0340 Ry
        Total length         46.3494 bohr
 
 
     Adding external electric field

     Computed dipole along edir(3) : 
        Dipole                0.1944 Ry au,          0.4942 Debye
        Dipole field          0.0004 Ry au, 
 
        Potential amp.       -0.0340 Ry
        Total length         46.3494 bohr
 

     total cpu time spent up to now is      771.0 secs

     total energy              =   -3339.53744531 Ry
     estimated scf accuracy    <     185.66896339 Ry

     total magnetization       =    -0.40 Bohr mag/cell
     absolute magnetization    =     0.81 Bohr mag/cell

     iteration # 11     ecut=    36.75 Ry     beta= 0.05
     Davidson diagonalization with overlap
     ethr =  1.00E-02,  avg # of iterations =  7.7

     negative rho (up, down):  1.094E-02 1.089E-02
 
     Adding external electric field

     Computed dipole along edir(3) : 
        Dipole               -1.9501 Ry au,         -4.9568 Debye
        Dipole field         -0.0037 Ry au, 
 
        Potential amp.        0.3411 Ry
        Total length         46.3494 bohr
 
 
     Adding external electric field

     Computed dipole along edir(3) : 
        Dipole               -1.9501 Ry au,         -4.9568 Debye
        Dipole field         -0.0037 Ry au, 
 
        Potential amp.        0.3411 Ry
        Total length         46.3494 bohr
 

     total cpu time spent up to now is      844.1 secs

     total energy              =   -3330.59518682 Ry
     estimated scf accuracy    <    1042.98955857 Ry

     total magnetization       =    -1.11 Bohr mag/cell
     absolute magnetization    =     1.60 Bohr mag/cell

     iteration # 12     ecut=    36.75 Ry     beta= 0.05
     Davidson diagonalization with overlap
     ethr =  1.00E-02,  avg # of iterations =  1.7

     negative rho (up, down):  1.123E-02 1.110E-02
 
     Adding external electric field

     Computed dipole along edir(3) : 
        Dipole               -2.4583 Ry au,         -6.2484 Debye
        Dipole field         -0.0046 Ry au, 
 
        Potential amp.        0.4300 Ry
        Total length         46.3494 bohr
 
 
     Adding external electric field

     Computed dipole along edir(3) : 
        Dipole               -2.4583 Ry au,         -6.2484 Debye
        Dipole field         -0.0046 Ry au, 
 
        Potential amp.        0.4300 Ry
        Total length         46.3494 bohr
 

     total cpu time spent up to now is      906.2 secs

     total energy              =   -3325.63808985 Ry
     estimated scf accuracy    <     265.03090152 Ry

     total magnetization       =     0.41 Bohr mag/cell
     absolute magnetization    =     1.73 Bohr mag/cell

     iteration # 13     ecut=    36.75 Ry     beta= 0.05
     Davidson diagonalization with overlap
     ethr =  1.00E-02,  avg # of iterations =  6.8

     negative rho (up, down):  1.120E-02 1.112E-02
 
     Adding external electric field

     Computed dipole along edir(3) : 
        Dipole               -1.3406 Ry au,         -3.4075 Debye
        Dipole field         -0.0025 Ry au, 
 
        Potential amp.        0.2345 Ry
        Total length         46.3494 bohr
 
 
     Adding external electric field

     Computed dipole along edir(3) : 
        Dipole               -1.3406 Ry au,         -3.4075 Debye
        Dipole field         -0.0025 Ry au, 
 
        Potential amp.        0.2345 Ry
        Total length         46.3494 bohr
 

     total cpu time spent up to now is      976.5 secs

     total energy              =   -3332.80478443 Ry
     estimated scf accuracy    <       4.85754185 Ry

     total magnetization       =    -0.56 Bohr mag/cell
     absolute magnetization    =     1.00 Bohr mag/cell

     iteration # 14     ecut=    36.75 Ry     beta= 0.05
     Davidson diagonalization with overlap
     ethr =  1.24E-03,  avg # of iterations =  8.9

     negative rho (up, down):  1.118E-02 1.114E-02
 
     Adding external electric field

     Computed dipole along edir(3) : 
        Dipole               -0.6382 Ry au,         -1.6221 Debye
        Dipole field         -0.0012 Ry au, 
 
        Potential amp.        0.1116 Ry
        Total length         46.3494 bohr
 
 
     Adding external electric field

     Computed dipole along edir(3) : 
        Dipole               -0.6382 Ry au,         -1.6221 Debye
        Dipole field         -0.0012 Ry au, 
 
        Potential amp.        0.1116 Ry
        Total length         46.3494 bohr
 

     total cpu time spent up to now is     1007.5 secs

     total energy              =   -3333.05381705 Ry
     estimated scf accuracy    <       3.63854620 Ry

     total magnetization       =    -0.21 Bohr mag/cell
     absolute magnetization    =     0.41 Bohr mag/cell

     iteration # 15     ecut=    36.75 Ry     beta= 0.05
     Davidson diagonalization with overlap
     ethr =  9.26E-04,  avg # of iterations =  5.5

     negative rho (up, down):  1.126E-02 1.123E-02
 
     Adding external electric field

     Computed dipole along edir(3) : 
        Dipole               -1.0258 Ry au,         -2.6073 Debye
        Dipole field         -0.0019 Ry au, 
 
        Potential amp.        0.1794 Ry
        Total length         46.3494 bohr
 
 
     Adding external electric field

     Computed dipole along edir(3) : 
        Dipole               -1.0258 Ry au,         -2.6073 Debye
        Dipole field         -0.0019 Ry au, 
 
        Potential amp.        0.1794 Ry
        Total length         46.3494 bohr
 

     total cpu time spent up to now is     1033.6 secs

     total energy              =   -3333.20787602 Ry
     estimated scf accuracy    <      59.98429413 Ry

     total magnetization       =    -0.33 Bohr mag/cell
     absolute magnetization    =     0.57 Bohr mag/cell

     iteration # 16     ecut=    36.75 Ry     beta= 0.05
     Davidson diagonalization with overlap
     ethr =  9.26E-04,  avg # of iterations =  5.8

     negative rho (up, down):  1.132E-02 1.129E-02
 
     Adding external electric field

     Computed dipole along edir(3) : 
        Dipole               -1.0342 Ry au,         -2.6288 Debye
        Dipole field         -0.0020 Ry au, 
 
        Potential amp.        0.1809 Ry
        Total length         46.3494 bohr
 
 
     Adding external electric field

     Computed dipole along edir(3) : 
        Dipole               -1.0342 Ry au,         -2.6288 Debye
        Dipole field         -0.0020 Ry au, 
 
        Potential amp.        0.1809 Ry
        Total length         46.3494 bohr
 

     total cpu time spent up to now is     1056.6 secs

     total energy              =   -3333.15070012 Ry
     estimated scf accuracy    <      83.76582458 Ry

     total magnetization       =    -0.18 Bohr mag/cell
     absolute magnetization    =     0.66 Bohr mag/cell

     iteration # 17     ecut=    36.75 Ry     beta= 0.05
     Davidson diagonalization with overlap
     ethr =  9.26E-04,  avg # of iterations =  1.2

     negative rho (up, down):  1.133E-02 1.129E-02
 
     Adding external electric field

     Computed dipole along edir(3) : 
        Dipole               -1.5202 Ry au,         -3.8639 Debye
        Dipole field         -0.0029 Ry au, 
 
        Potential amp.        0.2659 Ry
        Total length         46.3494 bohr
 
 
     Adding external electric field

     Computed dipole along edir(3) : 
        Dipole               -1.5202 Ry au,         -3.8639 Debye
        Dipole field         -0.0029 Ry au, 
 
        Potential amp.        0.2659 Ry
        Total length         46.3494 bohr
 

     total cpu time spent up to now is     1103.4 secs

     total energy              =   -3332.15863582 Ry
     estimated scf accuracy    <      35.52545512 Ry

     total magnetization       =     0.12 Bohr mag/cell
     absolute magnetization    =     0.48 Bohr mag/cell

     iteration # 18     ecut=    36.75 Ry     beta= 0.05
     Davidson diagonalization with overlap
     ethr =  9.26E-04,  avg # of iterations =  2.1

     negative rho (up, down):  1.137E-02 1.134E-02
 
     Adding external electric field

     Computed dipole along edir(3) : 
        Dipole               -1.6501 Ry au,         -4.1941 Debye
        Dipole field         -0.0031 Ry au, 
 
        Potential amp.        0.2887 Ry
        Total length         46.3494 bohr
 
 
     Adding external electric field

     Computed dipole along edir(3) : 
        Dipole               -1.6501 Ry au,         -4.1941 Debye
        Dipole field         -0.0031 Ry au, 
 
        Potential amp.        0.2887 Ry
        Total length         46.3494 bohr
 

     total cpu time spent up to now is     1177.8 secs

     total energy              =   -3332.86652648 Ry
     estimated scf accuracy    <       1.34366886 Ry

     total magnetization       =    -0.03 Bohr mag/cell
     absolute magnetization    =     0.23 Bohr mag/cell

     iteration # 19     ecut=    36.75 Ry     beta= 0.05
     Davidson diagonalization with overlap
     c_bands:  1 eigenvalues not converged
     c_bands:  1 eigenvalues not converged
     c_bands:  2 eigenvalues not converged
     c_bands:  3 eigenvalues not converged
     ethr =  3.42E-04,  avg # of iterations = 13.9

     negative rho (up, down):  1.125E-02 1.121E-02
 
     Adding external electric field

     Computed dipole along edir(3) : 
        Dipole               -1.7037 Ry au,         -4.3304 Debye
        Dipole field         -0.0032 Ry au, 
 
        Potential amp.        0.2980 Ry
        Total length         46.3494 bohr
 
 
     Adding external electric field

     Computed dipole along edir(3) : 
        Dipole               -1.7037 Ry au,         -4.3304 Debye
        Dipole field         -0.0032 Ry au, 
 
        Potential amp.        0.2980 Ry
        Total length         46.3494 bohr
 

     total cpu time spent up to now is     1290.3 secs

     total energy              =   -3332.91210754 Ry
     estimated scf accuracy    <       1.52276855 Ry

     total magnetization       =    -0.03 Bohr mag/cell
     absolute magnetization    =     0.23 Bohr mag/cell

     iteration # 20     ecut=    36.75 Ry     beta= 0.05
     Davidson diagonalization with overlap
     ethr =  3.42E-04,  avg # of iterations =  1.1

     negative rho (up, down):  1.123E-02 1.118E-02
 
     Adding external electric field

     Computed dipole along edir(3) : 
        Dipole               -2.2154 Ry au,         -5.6310 Debye
        Dipole field         -0.0042 Ry au, 
 
        Potential amp.        0.3876 Ry
        Total length         46.3494 bohr
 
 
     Adding external electric field

     Computed dipole along edir(3) : 
        Dipole               -2.2154 Ry au,         -5.6310 Debye
        Dipole field         -0.0042 Ry au, 
 
        Potential amp.        0.3876 Ry
        Total length         46.3494 bohr
 

     total cpu time spent up to now is     1331.3 secs

     total energy              =   -3332.95428659 Ry
     estimated scf accuracy    <       1.24897068 Ry

     total magnetization       =    -0.03 Bohr mag/cell
     absolute magnetization    =     0.22 Bohr mag/cell

     iteration # 21     ecut=    36.75 Ry     beta= 0.05
     Davidson diagonalization with overlap
     c_bands:  1 eigenvalues not converged
     c_bands:  1 eigenvalues not converged
     c_bands:  2 eigenvalues not converged
     c_bands:  1 eigenvalues not converged
     c_bands:  1 eigenvalues not converged
     c_bands:  1 eigenvalues not converged
     c_bands:  1 eigenvalues not converged
     ethr =  3.18E-04,  avg # of iterations = 15.2

     negative rho (up, down):  1.112E-02 1.107E-02
 
     Adding external electric field

     Computed dipole along edir(3) : 
        Dipole               -2.0314 Ry au,         -5.1632 Debye
        Dipole field         -0.0038 Ry au, 
 
        Potential amp.        0.3554 Ry
        Total length         46.3494 bohr
 
 
     Adding external electric field

     Computed dipole along edir(3) : 
        Dipole               -2.0314 Ry au,         -5.1632 Debye
        Dipole field         -0.0038 Ry au, 
 
        Potential amp.        0.3554 Ry
        Total length         46.3494 bohr
 

     total cpu time spent up to now is     1367.7 secs

     total energy              =   -3332.86777979 Ry
     estimated scf accuracy    <      22.08433604 Ry

     total magnetization       =    -0.10 Bohr mag/cell
     absolute magnetization    =     0.27 Bohr mag/cell

     iteration # 22     ecut=    36.75 Ry     beta= 0.05
     Davidson diagonalization with overlap
     ethr =  3.18E-04,  avg # of iterations =  5.0

     negative rho (up, down):  1.096E-02 1.093E-02
 
     Adding external electric field

     Computed dipole along edir(3) : 
        Dipole               -1.9422 Ry au,         -4.9367 Debye
        Dipole field         -0.0037 Ry au, 
 
        Potential amp.        0.3398 Ry
        Total length         46.3494 bohr
 
 
     Adding external electric field

     Computed dipole along edir(3) : 
        Dipole               -1.9422 Ry au,         -4.9367 Debye
        Dipole field         -0.0037 Ry au, 
 
        Potential amp.        0.3398 Ry
        Total length         46.3494 bohr
 

     total cpu time spent up to now is     1393.9 secs

     total energy              =   -3332.94214922 Ry
     estimated scf accuracy    <       2.90219642 Ry

     total magnetization       =    -0.01 Bohr mag/cell
     absolute magnetization    =     0.13 Bohr mag/cell

     iteration # 23     ecut=    36.75 Ry     beta= 0.05
     Davidson diagonalization with overlap
     ethr =  3.18E-04,  avg # of iterations =  2.1

     negative rho (up, down):  1.094E-02 1.094E-02
 
     Adding external electric field

     Computed dipole along edir(3) : 
        Dipole               -1.4954 Ry au,         -3.8008 Debye
        Dipole field         -0.0028 Ry au, 
 
        Potential amp.        0.2616 Ry
        Total length         46.3494 bohr
 
 
     Adding external electric field

     Computed dipole along edir(3) : 
        Dipole               -1.4954 Ry au,         -3.8008 Debye
        Dipole field         -0.0028 Ry au, 
 
        Potential amp.        0.2616 Ry
        Total length         46.3494 bohr
 

     total cpu time spent up to now is     1414.6 secs

     total energy              =   -3332.80564971 Ry
     estimated scf accuracy    <       2.22437413 Ry

     total magnetization       =    -0.02 Bohr mag/cell
     absolute magnetization    =     0.11 Bohr mag/cell

     iteration # 24     ecut=    36.75 Ry     beta= 0.05
     Davidson diagonalization with overlap
     ethr =  3.18E-04,  avg # of iterations = 10.3

     negative rho (up, down):  1.088E-02 1.089E-02
 
     Adding external electric field

     Computed dipole along edir(3) : 
        Dipole               -1.5024 Ry au,         -3.8188 Debye
        Dipole field         -0.0028 Ry au, 
 
        Potential amp.        0.2628 Ry
        Total length         46.3494 bohr
 
 
     Adding external electric field

     Computed dipole along edir(3) : 
        Dipole               -1.5024 Ry au,         -3.8188 Debye
        Dipole field         -0.0028 Ry au, 
 
        Potential amp.        0.2628 Ry
        Total length         46.3494 bohr
 

     total cpu time spent up to now is     1442.4 secs

     total energy              =   -3332.88684591 Ry
     estimated scf accuracy    <       1.23242783 Ry

     total magnetization       =    -0.00 Bohr mag/cell
     absolute magnetization    =     0.10 Bohr mag/cell

     iteration # 25     ecut=    36.75 Ry     beta= 0.05
     Davidson diagonalization with overlap
     ethr =  3.14E-04,  avg # of iterations =  1.2

     negative rho (up, down):  1.060E-02 1.065E-02
 
     Adding external electric field

     Computed dipole along edir(3) : 
        Dipole               -1.7888 Ry au,         -4.5466 Debye
        Dipole field         -0.0034 Ry au, 
 
        Potential amp.        0.3129 Ry
        Total length         46.3494 bohr
 
 
     Adding external electric field

     Computed dipole along edir(3) : 
        Dipole               -1.7888 Ry au,         -4.5466 Debye
        Dipole field         -0.0034 Ry au, 
 
        Potential amp.        0.3129 Ry
        Total length         46.3494 bohr
 

     total cpu time spent up to now is     1477.8 secs

     total energy              =   -3332.90869407 Ry
     estimated scf accuracy    <       1.23926402 Ry

     total magnetization       =    -0.00 Bohr mag/cell
     absolute magnetization    =     0.10 Bohr mag/cell

     iteration # 26     ecut=    36.75 Ry     beta= 0.05
     Davidson diagonalization with overlap
     ethr =  3.14E-04,  avg # of iterations = 13.2

     negative rho (up, down):  1.088E-02 1.095E-02
 
     Adding external electric field

     Computed dipole along edir(3) : 
        Dipole               -1.4398 Ry au,         -3.6597 Debye
        Dipole field         -0.0027 Ry au, 
 
        Potential amp.        0.2519 Ry
        Total length         46.3494 bohr
 
 
     Adding external electric field

     Computed dipole along edir(3) : 
        Dipole               -1.4398 Ry au,         -3.6597 Debye
        Dipole field         -0.0027 Ry au, 
 
        Potential amp.        0.2519 Ry
        Total length         46.3494 bohr
 

     total cpu time spent up to now is     1538.9 secs

     total energy              =   -3333.45903511 Ry
     estimated scf accuracy    <      91.30185975 Ry

     total magnetization       =     0.13 Bohr mag/cell
     absolute magnetization    =     0.22 Bohr mag/cell

     iteration # 27     ecut=    36.75 Ry     beta= 0.05
     Davidson diagonalization with overlap
     ethr =  3.14E-04,  avg # of iterations =  5.0

     negative rho (up, down):  1.092E-02 1.097E-02
 
     Adding external electric field

     Computed dipole along edir(3) : 
        Dipole               -1.6897 Ry au,         -4.2948 Debye
        Dipole field         -0.0032 Ry au, 
 
        Potential amp.        0.2956 Ry
        Total length         46.3494 bohr
 
 
     Adding external electric field

     Computed dipole along edir(3) : 
        Dipole               -1.6897 Ry au,         -4.2948 Debye
        Dipole field         -0.0032 Ry au, 
 
        Potential amp.        0.2956 Ry
        Total length         46.3494 bohr
 

     total cpu time spent up to now is     1595.7 secs

     total energy              =   -3333.42126084 Ry
     estimated scf accuracy    <     133.57095866 Ry

     total magnetization       =    -0.00 Bohr mag/cell
     absolute magnetization    =     0.18 Bohr mag/cell

     iteration # 28     ecut=    36.75 Ry     beta= 0.05
     Davidson diagonalization with overlap
     ethr =  3.14E-04,  avg # of iterations =  1.4

     negative rho (up, down):  1.094E-02 1.098E-02
 
     Adding external electric field

     Computed dipole along edir(3) : 
        Dipole               -1.7242 Ry au,         -4.3825 Debye
        Dipole field         -0.0033 Ry au, 
 
        Potential amp.        0.3016 Ry
        Total length         46.3494 bohr
 
 
     Adding external electric field

     Computed dipole along edir(3) : 
        Dipole               -1.7242 Ry au,         -4.3825 Debye
        Dipole field         -0.0033 Ry au, 
 
        Potential amp.        0.3016 Ry
        Total length         46.3494 bohr
 

     total cpu time spent up to now is     1615.5 secs

     total energy              =   -3333.66256980 Ry
     estimated scf accuracy    <      86.58536310 Ry

     total magnetization       =     0.02 Bohr mag/cell
     absolute magnetization    =     0.13 Bohr mag/cell

     iteration # 29     ecut=    36.75 Ry     beta= 0.05
     Davidson diagonalization with overlap
     ethr =  3.14E-04,  avg # of iterations =  1.0

     negative rho (up, down):  1.720E-02 1.720E-02
 
     Adding external electric field

     Computed dipole along edir(3) : 
        Dipole               -1.8638 Ry au,         -4.7373 Debye
        Dipole field         -0.0035 Ry au, 
 
        Potential amp.        0.3260 Ry
        Total length         46.3494 bohr
 
 
     Adding external electric field

     Computed dipole along edir(3) : 
        Dipole               -1.8638 Ry au,         -4.7373 Debye
        Dipole field         -0.0035 Ry au, 
 
        Potential amp.        0.3260 Ry
        Total length         46.3494 bohr
 

     total cpu time spent up to now is     1657.3 secs

     total energy              =   -3334.32502921 Ry
     estimated scf accuracy    <     105.07338135 Ry

     total magnetization       =     0.06 Bohr mag/cell
     absolute magnetization    =     0.15 Bohr mag/cell

     iteration # 30     ecut=    36.75 Ry     beta= 0.05
     Davidson diagonalization with overlap
     c_bands:  4 eigenvalues not converged
     c_bands:  1 eigenvalues not converged
     c_bands:  1 eigenvalues not converged
     c_bands:  1 eigenvalues not converged
     c_bands:  1 eigenvalues not converged
     ethr =  3.14E-04,  avg # of iterations =  8.2

     negative rho (up, down):  1.388E-02 1.387E-02
 
     Adding external electric field

     Computed dipole along edir(3) : 
        Dipole               -1.7885 Ry au,         -4.5460 Debye
        Dipole field         -0.0034 Ry au, 
 
        Potential amp.        0.3129 Ry
        Total length         46.3494 bohr
 
 
     Adding external electric field

     Computed dipole along edir(3) : 
        Dipole               -1.7885 Ry au,         -4.5460 Debye
        Dipole field         -0.0034 Ry au, 
 
        Potential amp.        0.3129 Ry
        Total length         46.3494 bohr
 

     total cpu time spent up to now is     1722.5 secs

     total energy              =   -3334.09701709 Ry
     estimated scf accuracy    <     224.59770554 Ry

     total magnetization       =     0.07 Bohr mag/cell
     absolute magnetization    =     0.27 Bohr mag/cell

     iteration # 31     ecut=    36.75 Ry     beta= 0.05
     Davidson diagonalization with overlap
     c_bands:  1 eigenvalues not converged
     ethr =  3.14E-04,  avg # of iterations =  4.4

     negative rho (up, down):  1.170E-02 1.170E-02
 
     Adding external electric field

     Computed dipole along edir(3) : 
        Dipole               -1.6705 Ry au,         -4.2459 Debye
        Dipole field         -0.0032 Ry au, 
 
        Potential amp.        0.2922 Ry
        Total length         46.3494 bohr
 
 
     Adding external electric field

     Computed dipole along edir(3) : 
        Dipole               -1.6705 Ry au,         -4.2459 Debye
        Dipole field         -0.0032 Ry au, 
 
        Potential amp.        0.2922 Ry
        Total length         46.3494 bohr
 

     total cpu time spent up to now is     1806.4 secs

     total energy              =   -3333.74539257 Ry
     estimated scf accuracy    <     165.39893418 Ry

     total magnetization       =     0.08 Bohr mag/cell
     absolute magnetization    =     0.18 Bohr mag/cell

     iteration # 32     ecut=    36.75 Ry     beta= 0.05
     Davidson diagonalization with overlap
     ethr =  3.14E-04,  avg # of iterations =  2.5

     negative rho (up, down):  1.145E-02 1.145E-02
 
     Adding external electric field

     Computed dipole along edir(3) : 
        Dipole               -1.3730 Ry au,         -3.4898 Debye
        Dipole field         -0.0026 Ry au, 
 
        Potential amp.        0.2402 Ry
        Total length         46.3494 bohr
 
 
     Adding external electric field

     Computed dipole along edir(3) : 
        Dipole               -1.3730 Ry au,         -3.4898 Debye
        Dipole field         -0.0026 Ry au, 
 
        Potential amp.        0.2402 Ry
        Total length         46.3494 bohr
 

     total cpu time spent up to now is     1877.9 secs

     total energy              =   -3333.05745044 Ry
     estimated scf accuracy    <      92.52079183 Ry

     total magnetization       =     0.03 Bohr mag/cell
     absolute magnetization    =     0.18 Bohr mag/cell

     iteration # 33     ecut=    36.75 Ry     beta= 0.05
     Davidson diagonalization with overlap
     ethr =  3.14E-04,  avg # of iterations =  3.6

     negative rho (up, down):  1.149E-02 1.147E-02
 
     Adding external electric field

     Computed dipole along edir(3) : 
        Dipole               -1.2152 Ry au,         -3.0887 Debye
        Dipole field         -0.0023 Ry au, 
 
        Potential amp.        0.2126 Ry
        Total length         46.3494 bohr
 
 
     Adding external electric field

     Computed dipole along edir(3) : 
        Dipole               -1.2152 Ry au,         -3.0887 Debye
        Dipole field         -0.0023 Ry au, 
 
        Potential amp.        0.2126 Ry
        Total length         46.3494 bohr
 

     total cpu time spent up to now is     1900.9 secs

     total energy              =   -3332.79636247 Ry
     estimated scf accuracy    <      50.17900567 Ry

     total magnetization       =     0.04 Bohr mag/cell
     absolute magnetization    =     0.15 Bohr mag/cell

     iteration # 34     ecut=    36.75 Ry     beta= 0.05
     Davidson diagonalization with overlap
     c_bands:  1 eigenvalues not converged
     ethr =  3.14E-04,  avg # of iterations =  9.2

     negative rho (up, down):  1.136E-02 1.131E-02
 
     Adding external electric field

     Computed dipole along edir(3) : 
        Dipole               -0.6473 Ry au,         -1.6452 Debye
        Dipole field         -0.0012 Ry au, 
 
        Potential amp.        0.1132 Ry
        Total length         46.3494 bohr
 
 
     Adding external electric field

     Computed dipole along edir(3) : 
        Dipole               -0.6473 Ry au,         -1.6452 Debye
        Dipole field         -0.0012 Ry au, 
 
        Potential amp.        0.1132 Ry
        Total length         46.3494 bohr
 

     total cpu time spent up to now is     1928.7 secs

     total energy              =   -3331.88714729 Ry
     estimated scf accuracy    <      24.75460930 Ry

     total magnetization       =     0.24 Bohr mag/cell
     absolute magnetization    =     0.53 Bohr mag/cell

     iteration # 35     ecut=    36.75 Ry     beta= 0.05
     Davidson diagonalization with overlap
     c_bands:  3 eigenvalues not converged
     c_bands:  3 eigenvalues not converged
     c_bands:  4 eigenvalues not converged
     c_bands:  1 eigenvalues not converged
     c_bands:  2 eigenvalues not converged
     c_bands:  1 eigenvalues not converged
     c_bands:  1 eigenvalues not converged
     c_bands:  4 eigenvalues not converged
     c_bands:  4 eigenvalues not converged
     c_bands:  1 eigenvalues not converged
     c_bands:  1 eigenvalues not converged
     ethr =  3.14E-04,  avg # of iterations = 19.6

     negative rho (up, down):  1.130E-02 1.125E-02
 
     Adding external electric field

     Computed dipole along edir(3) : 
        Dipole               -0.6082 Ry au,         -1.5459 Debye
        Dipole field         -0.0011 Ry au, 
 
        Potential amp.        0.1064 Ry
        Total length         46.3494 bohr
 
 
     Adding external electric field

     Computed dipole along edir(3) : 
        Dipole               -0.6082 Ry au,         -1.5459 Debye
        Dipole field         -0.0011 Ry au, 
 
        Potential amp.        0.1064 Ry
        Total length         46.3494 bohr
 

     total cpu time spent up to now is     1993.8 secs

     total energy              =   -3332.82950421 Ry
     estimated scf accuracy    <       1.20572462 Ry

     total magnetization       =    -0.14 Bohr mag/cell
     absolute magnetization    =     0.24 Bohr mag/cell

     iteration # 36     ecut=    36.75 Ry     beta= 0.05
     Davidson diagonalization with overlap
     ethr =  3.07E-04,  avg # of iterations =  1.9

     negative rho (up, down):  1.115E-02 1.110E-02
 
     Adding external electric field

     Computed dipole along edir(3) : 
        Dipole               -0.5282 Ry au,         -1.3425 Debye
        Dipole field         -0.0010 Ry au, 
 
        Potential amp.        0.0924 Ry
        Total length         46.3494 bohr
 
 
     Adding external electric field

     Computed dipole along edir(3) : 
        Dipole               -0.5282 Ry au,         -1.3425 Debye
        Dipole field         -0.0010 Ry au, 
 
        Potential amp.        0.0924 Ry
        Total length         46.3494 bohr
 

     total cpu time spent up to now is     2028.2 secs

     total energy              =   -3332.73658528 Ry
     estimated scf accuracy    <       0.86741940 Ry

     total magnetization       =    -0.29 Bohr mag/cell
     absolute magnetization    =     0.38 Bohr mag/cell

     iteration # 37     ecut=    36.75 Ry     beta= 0.05
     Davidson diagonalization with overlap
     ethr =  2.21E-04,  avg # of iterations =  2.5

     negative rho (up, down):  1.102E-02 1.098E-02
 
     Adding external electric field

     Computed dipole along edir(3) : 
        Dipole               -0.5417 Ry au,         -1.3770 Debye
        Dipole field         -0.0010 Ry au, 
 
        Potential amp.        0.0948 Ry
        Total length         46.3494 bohr
 
 
     Adding external electric field

     Computed dipole along edir(3) : 
        Dipole               -0.5417 Ry au,         -1.3770 Debye
        Dipole field         -0.0010 Ry au, 
 
        Potential amp.        0.0948 Ry
        Total length         46.3494 bohr
 

     total cpu time spent up to now is     2077.8 secs

     total energy              =   -3332.73018418 Ry
     estimated scf accuracy    <       0.34841835 Ry

     total magnetization       =    -0.10 Bohr mag/cell
     absolute magnetization    =     0.20 Bohr mag/cell

     iteration # 38     ecut=    36.75 Ry     beta= 0.05
     Davidson diagonalization with overlap
     c_bands:  1 eigenvalues not converged
     c_bands:  4 eigenvalues not converged
     c_bands:  2 eigenvalues not converged
     c_bands:  2 eigenvalues not converged
     c_bands:  2 eigenvalues not converged
     c_bands:  2 eigenvalues not converged
     c_bands:  5 eigenvalues not converged
     c_bands:  3 eigenvalues not converged
     c_bands:  2 eigenvalues not converged
     c_bands:  3 eigenvalues not converged
     c_bands:  1 eigenvalues not converged
     c_bands:  1 eigenvalues not converged
     c_bands:  2 eigenvalues not converged
     c_bands:  1 eigenvalues not converged
     c_bands:  5 eigenvalues not converged
     c_bands:  2 eigenvalues not converged
     c_bands:  1 eigenvalues not converged
     c_bands:  1 eigenvalues not converged
     ethr =  8.87E-05,  avg # of iterations = 20.5

     negative rho (up, down):  1.100E-02 1.096E-02
 
     Adding external electric field

     Computed dipole along edir(3) : 
        Dipole               -0.5378 Ry au,         -1.3671 Debye
        Dipole field         -0.0010 Ry au, 
 
        Potential amp.        0.0941 Ry
        Total length         46.3494 bohr
 
 
     Adding external electric field

     Computed dipole along edir(3) : 
        Dipole               -0.5378 Ry au,         -1.3671 Debye
        Dipole field         -0.0010 Ry au, 
 
        Potential amp.        0.0941 Ry
        Total length         46.3494 bohr
 

     total cpu time spent up to now is     2283.9 secs

     total energy              =   -3332.77816285 Ry
     estimated scf accuracy    <       0.64914946 Ry

     total magnetization       =    -0.02 Bohr mag/cell
     absolute magnetization    =     0.11 Bohr mag/cell

     iteration # 39     ecut=    36.75 Ry     beta= 0.05
     Davidson diagonalization with overlap
     ethr =  8.87E-05,  avg # of iterations =  1.5

     negative rho (up, down):  1.095E-02 1.092E-02
 
     Adding external electric field

     Computed dipole along edir(3) : 
        Dipole               -0.5427 Ry au,         -1.3794 Debye
        Dipole field         -0.0010 Ry au, 
 
        Potential amp.        0.0949 Ry
        Total length         46.3494 bohr
 
 
     Adding external electric field

     Computed dipole along edir(3) : 
        Dipole               -0.5427 Ry au,         -1.3794 Debye
        Dipole field         -0.0010 Ry au, 
 
        Potential amp.        0.0949 Ry
        Total length         46.3494 bohr
 

     total cpu time spent up to now is     2315.4 secs

     total energy              =   -3332.78982719 Ry
     estimated scf accuracy    <       0.64878742 Ry

     total magnetization       =    -0.02 Bohr mag/cell
     absolute magnetization    =     0.11 Bohr mag/cell

     iteration # 40     ecut=    36.75 Ry     beta= 0.05
     Davidson diagonalization with overlap
     ethr =  8.87E-05,  avg # of iterations =  1.1

     negative rho (up, down):  1.091E-02 1.087E-02
 
     Adding external electric field

     Computed dipole along edir(3) : 
        Dipole               -0.5281 Ry au,         -1.3423 Debye
        Dipole field         -0.0010 Ry au, 
 
        Potential amp.        0.0924 Ry
        Total length         46.3494 bohr
 
 
     Adding external electric field

     Computed dipole along edir(3) : 
        Dipole               -0.5281 Ry au,         -1.3423 Debye
        Dipole field         -0.0010 Ry au, 
 
        Potential amp.        0.0924 Ry
        Total length         46.3494 bohr
 

     total cpu time spent up to now is     2365.3 secs

     total energy              =   -3332.79434564 Ry
     estimated scf accuracy    <       0.78928971 Ry

     total magnetization       =    -0.03 Bohr mag/cell
     absolute magnetization    =     0.11 Bohr mag/cell

     iteration # 41     ecut=    36.75 Ry     beta= 0.05
     Davidson diagonalization with overlap
     ethr =  8.87E-05,  avg # of iterations =  1.2

     negative rho (up, down):  1.091E-02 1.087E-02
 
     Adding external electric field

     Computed dipole along edir(3) : 
        Dipole               -0.5242 Ry au,         -1.3324 Debye
        Dipole field         -0.0010 Ry au, 
 
        Potential amp.        0.0917 Ry
        Total length         46.3494 bohr
 
 
     Adding external electric field

     Computed dipole along edir(3) : 
        Dipole               -0.5242 Ry au,         -1.3324 Debye
        Dipole field         -0.0010 Ry au, 
 
        Potential amp.        0.0917 Ry
        Total length         46.3494 bohr
 

     total cpu time spent up to now is     2385.0 secs

     total energy              =   -3332.79781412 Ry
     estimated scf accuracy    <       0.80797130 Ry

     total magnetization       =    -0.01 Bohr mag/cell
     absolute magnetization    =     0.10 Bohr mag/cell

     iteration # 42     ecut=    36.75 Ry     beta= 0.05
     Davidson diagonalization with overlap
     ethr =  8.87E-05,  avg # of iterations =  1.0

     negative rho (up, down):  1.095E-02 1.093E-02
 
     Adding external electric field

     Computed dipole along edir(3) : 
        Dipole               -0.4665 Ry au,         -1.1858 Debye
        Dipole field         -0.0009 Ry au, 
 
        Potential amp.        0.0816 Ry
        Total length         46.3494 bohr
 
 
     Adding external electric field

     Computed dipole along edir(3) : 
        Dipole               -0.4665 Ry au,         -1.1858 Debye
        Dipole field         -0.0009 Ry au, 
 
        Potential amp.        0.0816 Ry
        Total length         46.3494 bohr
 

     total cpu time spent up to now is     2457.3 secs

     total energy              =   -3332.77314965 Ry
     estimated scf accuracy    <       0.85966338 Ry

     total magnetization       =    -0.02 Bohr mag/cell
     absolute magnetization    =     0.11 Bohr mag/cell

     iteration # 43     ecut=    36.75 Ry     beta= 0.05
     Davidson diagonalization with overlap
     ethr =  8.87E-05,  avg # of iterations =  1.1

     negative rho (up, down):  1.101E-02 1.097E-02
 
     Adding external electric field

     Computed dipole along edir(3) : 
        Dipole               -0.5216 Ry au,         -1.3257 Debye
        Dipole field         -0.0010 Ry au, 
 
        Potential amp.        0.0912 Ry
        Total length         46.3494 bohr
 
 
     Adding external electric field

     Computed dipole along edir(3) : 
        Dipole               -0.5216 Ry au,         -1.3257 Debye
        Dipole field         -0.0010 Ry au, 
 
        Potential amp.        0.0912 Ry
        Total length         46.3494 bohr
 

     total cpu time spent up to now is     2489.3 secs

     total energy              =   -3332.74384089 Ry
     estimated scf accuracy    <       0.64256570 Ry

     total magnetization       =    -0.05 Bohr mag/cell
     absolute magnetization    =     0.13 Bohr mag/cell

     iteration # 44     ecut=    36.75 Ry     beta= 0.05
     Davidson diagonalization with overlap
     ethr =  8.87E-05,  avg # of iterations =  4.1

     negative rho (up, down):  1.089E-02 1.086E-02
 
     Adding external electric field

     Computed dipole along edir(3) : 
        Dipole               -0.5444 Ry au,         -1.3838 Debye
        Dipole field         -0.0010 Ry au, 
 
        Potential amp.        0.0952 Ry
        Total length         46.3494 bohr
 
 
     Adding external electric field

     Computed dipole along edir(3) : 
        Dipole               -0.5444 Ry au,         -1.3838 Debye
        Dipole field         -0.0010 Ry au, 
 
        Potential amp.        0.0952 Ry
        Total length         46.3494 bohr
 

     total cpu time spent up to now is     2540.6 secs

     total energy              =   -3332.75320697 Ry
     estimated scf accuracy    <       0.14802040 Ry

     total magnetization       =    -0.05 Bohr mag/cell
     absolute magnetization    =     0.14 Bohr mag/cell

     iteration # 45     ecut=    36.75 Ry     beta= 0.05
     Davidson diagonalization with overlap
     ethr =  3.77E-05,  avg # of iterations =  1.9

     negative rho (up, down):  1.077E-02 1.073E-02
 
     Adding external electric field

     Computed dipole along edir(3) : 
        Dipole               -0.5744 Ry au,         -1.4601 Debye
        Dipole field         -0.0011 Ry au, 
 
        Potential amp.        0.1005 Ry
        Total length         46.3494 bohr
 
 
     Adding external electric field

     Computed dipole along edir(3) : 
        Dipole               -0.5744 Ry au,         -1.4601 Debye
        Dipole field         -0.0011 Ry au, 
 
        Potential amp.        0.1005 Ry
        Total length         46.3494 bohr
 

     total cpu time spent up to now is     2567.1 secs

     total energy              =   -3332.76137312 Ry
     estimated scf accuracy    <       0.45055422 Ry

     total magnetization       =    -0.04 Bohr mag/cell
     absolute magnetization    =     0.13 Bohr mag/cell

     iteration # 46     ecut=    36.75 Ry     beta= 0.05
     Davidson diagonalization with overlap
     ethr =  3.77E-05,  avg # of iterations =  3.0

     negative rho (up, down):  1.070E-02 1.065E-02
 
     Adding external electric field

     Computed dipole along edir(3) : 
        Dipole               -0.5413 Ry au,         -1.3759 Debye
        Dipole field         -0.0010 Ry au, 
 
        Potential amp.        0.0947 Ry
        Total length         46.3494 bohr
 
 
     Adding external electric field

     Computed dipole along edir(3) : 
        Dipole               -0.5413 Ry au,         -1.3759 Debye
        Dipole field         -0.0010 Ry au, 
 
        Potential amp.        0.0947 Ry
        Total length         46.3494 bohr
 

     total cpu time spent up to now is     2591.3 secs

     total energy              =   -3332.76899408 Ry
     estimated scf accuracy    <       0.52435473 Ry

     total magnetization       =    -0.02 Bohr mag/cell
     absolute magnetization    =     0.12 Bohr mag/cell

     iteration # 47     ecut=    36.75 Ry     beta= 0.05
     Davidson diagonalization with overlap
     ethr =  3.77E-05,  avg # of iterations =  1.9

     negative rho (up, down):  1.056E-02 1.046E-02
 
     Adding external electric field

     Computed dipole along edir(3) : 
        Dipole               -0.1847 Ry au,         -0.4694 Debye
        Dipole field         -0.0003 Ry au, 
 
        Potential amp.        0.0323 Ry
        Total length         46.3494 bohr
 
 
     Adding external electric field

     Computed dipole along edir(3) : 
        Dipole               -0.1847 Ry au,         -0.4694 Debye
        Dipole field         -0.0003 Ry au, 
 
        Potential amp.        0.0323 Ry
        Total length         46.3494 bohr
 

     total cpu time spent up to now is     2617.2 secs

     total energy              =   -3332.72873970 Ry
     estimated scf accuracy    <       0.61339874 Ry

     total magnetization       =    -0.03 Bohr mag/cell
     absolute magnetization    =     0.12 Bohr mag/cell

     iteration # 48     ecut=    36.75 Ry     beta= 0.05
     Davidson diagonalization with overlap
     c_bands:  3 eigenvalues not converged
     c_bands:  2 eigenvalues not converged
     c_bands:  3 eigenvalues not converged
     c_bands:  1 eigenvalues not converged
     c_bands:  1 eigenvalues not converged
     c_bands:  1 eigenvalues not converged
     c_bands:  2 eigenvalues not converged
     c_bands:  1 eigenvalues not converged
     c_bands:  4 eigenvalues not converged
     c_bands:  1 eigenvalues not converged
     c_bands:  1 eigenvalues not converged
     ethr =  3.77E-05,  avg # of iterations = 18.6

     negative rho (up, down):  1.046E-02 1.037E-02
 
     Adding external electric field

     Computed dipole along edir(3) : 
        Dipole               -0.2789 Ry au,         -0.7089 Debye
        Dipole field         -0.0005 Ry au, 
 
        Potential amp.        0.0488 Ry
        Total length         46.3494 bohr
 
 
     Adding external electric field

     Computed dipole along edir(3) : 
        Dipole               -0.2789 Ry au,         -0.7089 Debye
        Dipole field         -0.0005 Ry au, 
 
        Potential amp.        0.0488 Ry
        Total length         46.3494 bohr
 

     total cpu time spent up to now is     2657.0 secs

     total energy              =   -3332.74779423 Ry
     estimated scf accuracy    <       0.28460552 Ry

     total magnetization       =    -0.18 Bohr mag/cell
     absolute magnetization    =     0.26 Bohr mag/cell

     iteration # 49     ecut=    36.75 Ry     beta= 0.05
     Davidson diagonalization with overlap
     ethr =  3.77E-05,  avg # of iterations =  5.5

     negative rho (up, down):  1.048E-02 1.040E-02
 
     Adding external electric field

     Computed dipole along edir(3) : 
        Dipole               -0.3027 Ry au,         -0.7694 Debye
        Dipole field         -0.0006 Ry au, 
 
        Potential amp.        0.0530 Ry
        Total length         46.3494 bohr
 
 
     Adding external electric field

     Computed dipole along edir(3) : 
        Dipole               -0.3027 Ry au,         -0.7694 Debye
        Dipole field         -0.0006 Ry au, 
 
        Potential amp.        0.0530 Ry
        Total length         46.3494 bohr
 

     total cpu time spent up to now is     2680.5 secs

     total energy              =   -3332.74850507 Ry
     estimated scf accuracy    <       0.13857014 Ry

     total magnetization       =    -0.08 Bohr mag/cell
     absolute magnetization    =     0.17 Bohr mag/cell

     iteration # 50     ecut=    36.75 Ry     beta= 0.05
     Davidson diagonalization with overlap
     ethr =  3.53E-05,  avg # of iterations =  2.0

     negative rho (up, down):  1.044E-02 1.035E-02
 
     Adding external electric field

     Computed dipole along edir(3) : 
        Dipole               -0.4697 Ry au,         -1.1939 Debye
        Dipole field         -0.0009 Ry au, 
 
        Potential amp.        0.0822 Ry
        Total length         46.3494 bohr
 
 
     Adding external electric field

     Computed dipole along edir(3) : 
        Dipole               -0.4697 Ry au,         -1.1939 Debye
        Dipole field         -0.0009 Ry au, 
 
        Potential amp.        0.0822 Ry
        Total length         46.3494 bohr
 

     total cpu time spent up to now is     2704.0 secs

     total energy              =   -3332.74247135 Ry
     estimated scf accuracy    <       0.19846908 Ry

     total magnetization       =    -0.20 Bohr mag/cell
     absolute magnetization    =     0.28 Bohr mag/cell

     iteration # 51     ecut=    36.75 Ry     beta= 0.05
     Davidson diagonalization with overlap
     ethr =  3.53E-05,  avg # of iterations =  5.5

     negative rho (up, down):  1.040E-02 1.032E-02
 
     Adding external electric field

     Computed dipole along edir(3) : 
        Dipole               -0.4093 Ry au,         -1.0403 Debye
        Dipole field         -0.0008 Ry au, 
 
        Potential amp.        0.0716 Ry
        Total length         46.3494 bohr
 
 
     Adding external electric field

     Computed dipole along edir(3) : 
        Dipole               -0.4093 Ry au,         -1.0403 Debye
        Dipole field         -0.0008 Ry au, 
 
        Potential amp.        0.0716 Ry
        Total length         46.3494 bohr
 

     total cpu time spent up to now is     2730.9 secs

     total energy              =   -3332.74437889 Ry
     estimated scf accuracy    <       0.10009262 Ry

     total magnetization       =    -0.23 Bohr mag/cell
     absolute magnetization    =     0.30 Bohr mag/cell

     iteration # 52     ecut=    36.75 Ry     beta= 0.05
     Davidson diagonalization with overlap
     ethr =  2.55E-05,  avg # of iterations =  3.6

     negative rho (up, down):  1.039E-02 1.031E-02
 
     Adding external electric field

     Computed dipole along edir(3) : 
        Dipole               -0.3265 Ry au,         -0.8298 Debye
        Dipole field         -0.0006 Ry au, 
 
        Potential amp.        0.0571 Ry
        Total length         46.3494 bohr
 
 
     Adding external electric field

     Computed dipole along edir(3) : 
        Dipole               -0.3265 Ry au,         -0.8298 Debye
        Dipole field         -0.0006 Ry au, 
 
        Potential amp.        0.0571 Ry
        Total length         46.3494 bohr
 

     total cpu time spent up to now is     2754.8 secs

     total energy              =   -3332.74588817 Ry
     estimated scf accuracy    <       0.03949732 Ry

     total magnetization       =    -0.10 Bohr mag/cell
     absolute magnetization    =     0.17 Bohr mag/cell

     iteration # 53     ecut=    36.75 Ry     beta= 0.05
     Davidson diagonalization with overlap
     c_bands:  1 eigenvalues not converged
     c_bands:  2 eigenvalues not converged
     c_bands:  2 eigenvalues not converged
     c_bands:  1 eigenvalues not converged
     c_bands:  1 eigenvalues not converged
     c_bands:  1 eigenvalues not converged
     ethr =  1.01E-05,  avg # of iterations = 14.4

     negative rho (up, down):  1.036E-02 1.027E-02
 
     Adding external electric field

     Computed dipole along edir(3) : 
        Dipole               -0.2925 Ry au,         -0.7435 Debye
        Dipole field         -0.0006 Ry au, 
 
        Potential amp.        0.0512 Ry
        Total length         46.3494 bohr
 
 
     Adding external electric field

     Computed dipole along edir(3) : 
        Dipole               -0.2925 Ry au,         -0.7435 Debye
        Dipole field         -0.0006 Ry au, 
 
        Potential amp.        0.0512 Ry
        Total length         46.3494 bohr
 

     total cpu time spent up to now is     2799.5 secs

     total energy              =   -3332.74557962 Ry
     estimated scf accuracy    <       0.01797094 Ry

     total magnetization       =    -0.14 Bohr mag/cell
     absolute magnetization    =     0.20 Bohr mag/cell

     iteration # 54     ecut=    36.75 Ry     beta= 0.05
     Davidson diagonalization with overlap
     c_bands:  1 eigenvalues not converged
     c_bands:  1 eigenvalues not converged
     ethr =  4.57E-06,  avg # of iterations =  9.8

     negative rho (up, down):  1.030E-02 1.019E-02
 
     Adding external electric field

     Computed dipole along edir(3) : 
        Dipole               -0.1750 Ry au,         -0.4449 Debye
        Dipole field         -0.0003 Ry au, 
 
        Potential amp.        0.0306 Ry
        Total length         46.3494 bohr
 
 
     Adding external electric field

     Computed dipole along edir(3) : 
        Dipole               -0.1750 Ry au,         -0.4449 Debye
        Dipole field         -0.0003 Ry au, 
 
        Potential amp.        0.0306 Ry
        Total length         46.3494 bohr
 

     total cpu time spent up to now is     2828.6 secs

     total energy              =   -3332.74668152 Ry
     estimated scf accuracy    <       0.00987842 Ry

     total magnetization       =    -0.17 Bohr mag/cell
     absolute magnetization    =     0.23 Bohr mag/cell

     iteration # 55     ecut=    36.75 Ry     beta= 0.05
     Davidson diagonalization with overlap
     c_bands:  3 eigenvalues not converged
     c_bands:  2 eigenvalues not converged
     c_bands:  1 eigenvalues not converged
     ethr =  2.51E-06,  avg # of iterations =  8.1

     negative rho (up, down):  1.028E-02 1.016E-02
 
     Adding external electric field

     Computed dipole along edir(3) : 
        Dipole               -0.1852 Ry au,         -0.4708 Debye
        Dipole field         -0.0003 Ry au, 
 
        Potential amp.        0.0324 Ry
        Total length         46.3494 bohr
 
 
     Adding external electric field

     Computed dipole along edir(3) : 
        Dipole               -0.1852 Ry au,         -0.4708 Debye
        Dipole field         -0.0003 Ry au, 
 
        Potential amp.        0.0324 Ry
        Total length         46.3494 bohr
 

     total cpu time spent up to now is     2854.6 secs

     total energy              =   -3332.74747814 Ry
     estimated scf accuracy    <       0.02555147 Ry

     total magnetization       =    -0.20 Bohr mag/cell
     absolute magnetization    =     0.25 Bohr mag/cell

     iteration # 56     ecut=    36.75 Ry     beta= 0.05
     Davidson diagonalization with overlap
     ethr =  2.51E-06,  avg # of iterations =  7.5

     negative rho (up, down):  1.023E-02 1.011E-02
 
     Adding external electric field

     Computed dipole along edir(3) : 
        Dipole               -0.2156 Ry au,         -0.5480 Debye
        Dipole field         -0.0004 Ry au, 
 
        Potential amp.        0.0377 Ry
        Total length         46.3494 bohr
 
 
     Adding external electric field

     Computed dipole along edir(3) : 
        Dipole               -0.2156 Ry au,         -0.5480 Debye
        Dipole field         -0.0004 Ry au, 
 
        Potential amp.        0.0377 Ry
        Total length         46.3494 bohr
 

     total cpu time spent up to now is     2885.9 secs

     total energy              =   -3332.74759728 Ry
     estimated scf accuracy    <       0.01032031 Ry

     total magnetization       =    -0.12 Bohr mag/cell
     absolute magnetization    =     0.18 Bohr mag/cell

     iteration # 57     ecut=    36.75 Ry     beta= 0.05
     Davidson diagonalization with overlap
     c_bands:  1 eigenvalues not converged
     ethr =  2.51E-06,  avg # of iterations =  3.0

     negative rho (up, down):  1.021E-02 1.009E-02
 
     Adding external electric field

     Computed dipole along edir(3) : 
        Dipole               -0.2291 Ry au,         -0.5824 Debye
        Dipole field         -0.0004 Ry au, 
 
        Potential amp.        0.0401 Ry
        Total length         46.3494 bohr
 
 
     Adding external electric field

     Computed dipole along edir(3) : 
        Dipole               -0.2291 Ry au,         -0.5824 Debye
        Dipole field         -0.0004 Ry au, 
 
        Potential amp.        0.0401 Ry
        Total length         46.3494 bohr
 

     total cpu time spent up to now is     2912.4 secs

     total energy              =   -3332.74748570 Ry
     estimated scf accuracy    <       0.00395044 Ry

     total magnetization       =    -0.14 Bohr mag/cell
     absolute magnetization    =     0.20 Bohr mag/cell

     iteration # 58     ecut=    36.75 Ry     beta= 0.05
     Davidson diagonalization with overlap
     ethr =  1.01E-06,  avg # of iterations =  4.5

     negative rho (up, down):  1.024E-02 1.010E-02
 
     Adding external electric field

     Computed dipole along edir(3) : 
        Dipole               -0.1983 Ry au,         -0.5041 Debye
        Dipole field         -0.0004 Ry au, 
 
        Potential amp.        0.0347 Ry
        Total length         46.3494 bohr
 
 
     Adding external electric field

     Computed dipole along edir(3) : 
        Dipole               -0.1983 Ry au,         -0.5041 Debye
        Dipole field         -0.0004 Ry au, 
 
        Potential amp.        0.0347 Ry
        Total length         46.3494 bohr
 

     total cpu time spent up to now is     2953.9 secs

     total energy              =   -3332.74745976 Ry
     estimated scf accuracy    <       0.00214960 Ry

     total magnetization       =    -0.18 Bohr mag/cell
     absolute magnetization    =     0.23 Bohr mag/cell

     iteration # 59     ecut=    36.75 Ry     beta= 0.05
     Davidson diagonalization with overlap
     ethr =  5.47E-07,  avg # of iterations =  4.9

     negative rho (up, down):  1.032E-02 1.017E-02
 
     Adding external electric field

     Computed dipole along edir(3) : 
        Dipole               -0.1809 Ry au,         -0.4597 Debye
        Dipole field         -0.0003 Ry au, 
 
        Potential amp.        0.0316 Ry
        Total length         46.3494 bohr
 
 
     Adding external electric field

     Computed dipole along edir(3) : 
        Dipole               -0.1809 Ry au,         -0.4597 Debye
        Dipole field         -0.0003 Ry au, 
 
        Potential amp.        0.0316 Ry
        Total length         46.3494 bohr
 

     total cpu time spent up to now is     2977.7 secs

     total energy              =   -3332.74764312 Ry
     estimated scf accuracy    <       0.00430601 Ry

     total magnetization       =    -0.25 Bohr mag/cell
     absolute magnetization    =     0.29 Bohr mag/cell

     iteration # 60     ecut=    36.75 Ry     beta= 0.05
     Davidson diagonalization with overlap
     ethr =  5.47E-07,  avg # of iterations =  2.3

     negative rho (up, down):  1.042E-02 1.025E-02
 
     Adding external electric field

     Computed dipole along edir(3) : 
        Dipole               -0.1652 Ry au,         -0.4199 Debye
        Dipole field         -0.0003 Ry au, 
 
        Potential amp.        0.0289 Ry
        Total length         46.3494 bohr
 
 
     Adding external electric field

     Computed dipole along edir(3) : 
        Dipole               -0.1652 Ry au,         -0.4199 Debye
        Dipole field         -0.0003 Ry au, 
 
        Potential amp.        0.0289 Ry
        Total length         46.3494 bohr
 

     total cpu time spent up to now is     2998.6 secs

     total energy              =   -3332.74772199 Ry
     estimated scf accuracy    <       0.00095953 Ry

     total magnetization       =    -0.20 Bohr mag/cell
     absolute magnetization    =     0.25 Bohr mag/cell

     iteration # 61     ecut=    36.75 Ry     beta= 0.05
     Davidson diagonalization with overlap
     ethr =  2.44E-07,  avg # of iterations =  5.0

     negative rho (up, down):  1.046E-02 1.028E-02
 
     Adding external electric field

     Computed dipole along edir(3) : 
        Dipole               -0.1700 Ry au,         -0.4320 Debye
        Dipole field         -0.0003 Ry au, 
 
        Potential amp.        0.0297 Ry
        Total length         46.3494 bohr
 
 
     Adding external electric field

     Computed dipole along edir(3) : 
        Dipole               -0.1700 Ry au,         -0.4320 Debye
        Dipole field         -0.0003 Ry au, 
 
        Potential amp.        0.0297 Ry
        Total length         46.3494 bohr
 

     total cpu time spent up to now is     3023.9 secs

     total energy              =   -3332.74771443 Ry
[...]
   -22.1267 -17.3449 -17.0144 -16.9276 -16.8433 -16.6859 -16.6836 -16.5610
   -16.4456 -16.3957 -16.3713 -16.3710 -16.3257 -16.3048 -16.2570 -16.2480
   -16.2136 -16.1464 -16.0988 -16.0810 -15.9766 -15.9433 -15.9376 -15.9098
   -15.8567 -15.8244 -15.7805 -15.7449 -15.6784 -15.6257 -14.8529 -14.1759
   -14.0606  -5.8589  -4.6129  -4.3744  -4.3249  -4.2356  -4.2111  -4.1786
    -4.1341  -4.1298  -4.0948  -4.0538  -3.8425  -3.8308  -3.7839  -3.7452
    -3.6667  -3.6439  -3.5489  -3.4718  -3.4675  -3.3889  -3.3415  -3.2768
    -3.2066  -3.1830  -3.1718  -3.1213  -3.1164  -3.0175  -2.9224  -2.8769
    -2.8587  -2.8399  -2.8224  -2.7990  -2.7651  -2.6811  -2.6268  -2.5767
    -2.5655  -2.5213  -2.4535  -2.4386  -2.3437  -2.2693  -2.2367  -2.1671
    -2.0829  -1.9972  -1.9890  -1.9838  -1.9716  -1.9258  -1.8573  -1.8299
    -1.8130  -1.6736  -1.5262  -1.4975  -1.4819  -1.4133  -1.4106  -1.3717
    -1.3423  -1.3239  -1.1826  -1.1000  -1.0590  -1.0475  -0.9575  -0.9474
    -0.8941  -0.8803  -0.8607  -0.8163  -0.7760  -0.7170  -0.6793  -0.6439
    -0.6310  -0.6168  -0.5281  -0.4779  -0.3946  -0.3292  -0.3111  -0.3050
    -0.2196  -0.0065   0.0415   0.1264   0.3238   0.3742   0.4251   0.5681
     0.9093   1.0018   1.7736   1.9063   2.5365   2.6457   2.7346   2.7592
     2.8051   2.8745   2.9209   2.9453   2.9891   3.0021

          k = 0.0380 0.0419 0.0000 ( 25075 PWs)   bands (ev):

   -56.6383 -56.6275 -56.6097 -56.6019 -56.5749 -56.5127 -56.5036 -56.4656
   -56.4031 -56.3781 -56.3769 -56.3758 -56.3509 -56.3118 -55.6070 -55.5829
   -33.0805 -32.9720 -32.9178 -32.9100 -32.8825 -32.8721 -32.8523 -32.8521
   -32.8261 -32.8208 -32.7997 -32.7785 -32.7706 -32.7628 -32.7586 -32.7497
   -32.7416 -32.7157 -32.7054 -32.6933 -32.6931 -32.6492 -32.6490 -32.6407
   -32.6401 -32.5973 -32.5953 -32.5907 -32.5802 -32.5763 -32.5647 -32.5568
   -32.5425 -32.5423 -32.5249 -32.5045 -32.5014 -32.4966 -32.4755 -32.4737
   -32.4612 -32.4224 -31.9117 -31.8737 -31.8540 -31.7759 -31.7145 -31.6431
   -22.1266 -17.2169 -16.9011 -16.8258 -16.7421 -16.6520 -16.5860 -16.5385
   -16.4919 -16.4184 -16.3588 -16.3275 -16.3128 -16.2772 -16.2670 -16.2252
   -16.2007 -16.1575 -16.1140 -16.0816 -16.0223 -16.0143 -16.0016 -15.9646
   -15.9186 -15.8793 -15.8513 -15.7938 -15.7517 -15.7061 -14.8536 -14.1801
   -14.1002  -5.8599  -4.4380  -4.2219  -4.1978  -4.1670  -4.1132  -4.0671
    -4.0030  -3.9495  -3.9067  -3.8804  -3.7950  -3.6913  -3.6433  -3.6330
    -3.5865  -3.5641  -3.5121  -3.4662  -3.4466  -3.4318  -3.3944  -3.3668
    -3.3393  -3.3187  -3.2978  -3.2422  -3.1788  -3.1570  -3.0991  -3.0562
    -3.0317  -2.9501  -2.9056  -2.8842  -2.8183  -2.8002  -2.7412  -2.5870
    -2.5166  -2.4949  -2.4134  -2.3380  -2.2986  -2.2046  -2.0822  -2.0751
    -2.0342  -1.9579  -1.9239  -1.8993  -1.8660  -1.8349  -1.7621  -1.7317
    -1.6670  -1.6272  -1.6098  -1.5516  -1.5056  -1.4513  -1.4348  -1.4047
    -1.3273  -1.2984  -1.2781  -1.2615  -1.2112  -1.1997  -1.1514  -1.1303
    -1.0855  -1.0548  -0.9736  -0.9360  -0.8768  -0.7966  -0.7552  -0.7168
    -0.6671  -0.5859  -0.5363  -0.4582  -0.4024  -0.3484  -0.2949  -0.2387
    -0.1893  -0.1187  -0.0616  -0.0125   0.0453   0.3360   0.6216   0.6824
     0.8921   0.9784   1.7537   1.9015   2.6389   2.7157   2.7853   2.8367
     2.8774   2.8938   2.9318   3.0181   3.0449   3.0826

          k = 0.0380-0.0839 0.0000 ( 25070 PWs)   bands (ev):

   -56.6319 -56.6161 -56.6155 -56.6139 -56.5725 -56.5152 -56.4996 -56.4696
   -56.3932 -56.3880 -56.3747 -56.3669 -56.3597 -56.3140 -55.5949 -55.5949
   -32.9421 -32.9409 -32.8932 -32.8778 -32.8640 -32.8511 -32.8466 -32.8338
   -32.8104 -32.7981 -32.7786 -32.7738 -32.7716 -32.7601 -32.7543 -32.7318
   -32.7259 -32.7202 -32.7195 -32.7153 -32.6932 -32.6885 -32.6651 -32.6434
   -32.6350 -32.6331 -32.6263 -32.6209 -32.6097 -32.5692 -32.5675 -32.5643
   -32.5558 -32.5542 -32.5496 -32.5408 -32.5354 -32.4969 -32.4877 -32.4828
   -32.4791 -32.4562 -31.8638 -31.8637 -31.7794 -31.7793 -31.7452 -31.7452
   -22.1266 -16.9053 -16.8965 -16.6685 -16.6571 -16.6306 -16.5341 -16.5062
   -16.4659 -16.4460 -16.4298 -16.3778 -16.3052 -16.2577 -16.2037 -16.1854
   -16.1847 -16.1600 -16.1290 -16.1068 -16.0722 -16.0578 -16.0148 -16.0004
   -15.9790 -15.9171 -15.9119 -15.8819 -15.8680 -15.8449 -14.8541 -14.1635
   -14.1613  -5.8606  -4.1983  -4.1453  -4.0659  -4.0344  -3.8598  -3.7968
    -3.7779  -3.7636  -3.7577  -3.7369  -3.7180  -3.6320  -3.6154  -3.6143
    -3.6088  -3.5864  -3.5435  -3.5310  -3.4719  -3.4533  -3.4444  -3.3891
    -3.3633  -3.3556  -3.3421  -3.3204  -3.2684  -3.2258  -3.2046  -3.1682
    -3.1191  -3.0988  -2.8046  -2.7673  -2.6872  -2.6624  -2.6072  -2.5111
    -2.5047  -2.4762  -2.4195  -2.4059  -2.3666  -2.3464  -2.3070  -2.3030
    -2.1793  -2.1750  -2.1151  -2.0896  -1.9171  -1.8733  -1.8597  -1.7662
    -1.6321  -1.6258  -1.5476  -1.5225  -1.4821  -1.4216  -1.3442  -1.3262
    -1.3209  -1.2964  -1.2781  -1.2750  -1.2300  -1.1756  -1.1480  -1.1300
    -1.0952  -1.0835  -1.0661  -1.0258  -0.9819  -0.9058  -0.7886  -0.7615
    -0.7320  -0.6621  -0.5542  -0.5120  -0.4737  -0.4032  -0.3559  -0.2957
    -0.2705  -0.2022  -0.1014  -0.0229   0.1353   0.1659   0.7593   0.7598
     0.9061   0.9089   1.7583   1.8945   2.6894   2.6997   2.8107   2.8294
     2.8823   2.9122   2.9822   3.1212   3.1304   3.1504

          k = 0.0380-0.0419 0.0000 ( 25077 PWs)   bands (ev):

   -56.6383 -56.6275 -56.6097 -56.6019 -56.5749 -56.5127 -56.5036 -56.4656
   -56.4031 -56.3781 -56.3769 -56.3758 -56.3509 -56.3118 -55.6070 -55.5829
   -33.0805 -32.9720 -32.9177 -32.9100 -32.8825 -32.8721 -32.8523 -32.8521
   -32.8261 -32.8208 -32.7997 -32.7785 -32.7707 -32.7627 -32.7586 -32.7497
   -32.7416 -32.7157 -32.7054 -32.6933 -32.6931 -32.6492 -32.6490 -32.6407
   -32.6401 -32.5973 -32.5953 -32.5906 -32.5802 -32.5763 -32.5647 -32.5568
   -32.5424 -32.5423 -32.5249 -32.5045 -32.5014 -32.4967 -32.4755 -32.4737
   -32.4612 -32.4223 -31.9117 -31.8737 -31.8540 -31.7759 -31.7145 -31.6431
   -22.1267 -17.2169 -16.9011 -16.8258 -16.7420 -16.6520 -16.5859 -16.5385
   -16.4919 -16.4188 -16.3581 -16.3278 -16.3133 -16.2772 -16.2670 -16.2255
   -16.2007 -16.1576 -16.1137 -16.0817 -16.0223 -16.0141 -16.0015 -15.9646
   -15.9182 -15.8795 -15.8510 -15.7941 -15.7517 -15.7062 -14.8536 -14.1801
   -14.1002  -5.8600  -4.4380  -4.2234  -4.1974  -4.1678  -4.1110  -4.0666
    -4.0023  -3.9488  -3.9066  -3.8804  -3.7949  -3.6913  -3.6438  -3.6334
    -3.5863  -3.5645  -3.5124  -3.4662  -3.4451  -3.4325  -3.3949  -3.3672
    -3.3394  -3.3188  -3.2983  -3.2430  -3.1782  -3.1573  -3.0991  -3.0554
    -3.0324  -2.9490  -2.9048  -2.8829  -2.8204  -2.8004  -2.7411  -2.5866
    -2.5158  -2.4945  -2.4139  -2.3380  -2.2983  -2.2051  -2.0812  -2.0751
    -2.0341  -1.9581  -1.9231  -1.9009  -1.8661  -1.8360  -1.7625  -1.7332
    -1.6665  -1.6277  -1.6108  -1.5521  -1.5057  -1.4518  -1.4344  -1.4051
    -1.3285  -1.3004  -1.2766  -1.2615  -1.2120  -1.2003  -1.1510  -1.1301
    -1.0853  -1.0542  -0.9732  -0.9360  -0.8769  -0.7969  -0.7546  -0.7165
    -0.6663  -0.5865  -0.5356  -0.4586  -0.4023  -0.3483  -0.2944  -0.2385
    -0.1894  -0.1177  -0.0617  -0.0123   0.0461   0.3364   0.6216   0.6824
     0.8919   0.9790   1.7530   1.9013   2.6391   2.7154   2.7853   2.8368
     2.8786   2.8927   2.9322   3.0175   3.0452   3.0831

          k =-0.0760-0.0000 0.0000 ( 25092 PWs)   bands (ev):

   -56.6426 -56.6327 -56.6053 -56.5966 -56.5772 -56.5104 -56.5069 -56.4623
   -56.4079 -56.3807 -56.3790 -56.3731 -56.3461 -56.3097 -55.6119 -55.5778
   -33.1381 -33.0267 -32.9732 -32.9286 -32.9207 -32.8895 -32.8695 -32.8592
   -32.8467 -32.8293 -32.8156 -32.8103 -32.7697 -32.7691 -32.7480 -32.7422
   -32.7193 -32.7033 -32.6985 -32.6800 -32.6798 -32.6485 -32.6363 -32.6336
   -32.5907 -32.5863 -32.5828 -32.5826 -32.5679 -32.5579 -32.5536 -32.5530
   -32.5469 -32.5448 -32.5174 -32.5082 -32.4958 -32.4688 -32.4591 -32.4553
   -32.4252 -32.3847 -31.9653 -31.8811 -31.8485 -31.7884 -31.7017 -31.5857
   -22.1267 -17.2445 -16.9806 -16.8065 -16.7592 -16.6845 -16.6582 -16.5705
   -16.4915 -16.4582 -16.4503 -16.3881 -16.3542 -16.3526 -16.3361 -16.2952
   -16.2130 -16.1807 -16.1044 -16.0315 -16.0172 -16.0032 -15.9384 -15.9018
   -15.8592 -15.8237 -15.7671 -15.6932 -15.6765 -15.6257 -14.8529 -14.1728
   -14.0604  -5.8581  -4.5913  -4.2743  -4.2129  -4.1920  -4.1834  -4.1118
    -4.0013  -3.9701  -3.9469  -3.8795  -3.8271  -3.8265  -3.8129  -3.7836
    -3.7519  -3.6354  -3.4737  -3.4277  -3.4197  -3.3417  -3.1787  -3.1706
    -3.1380  -3.0782  -3.0613  -3.0462  -3.0259  -3.0000  -2.9520  -2.9154
    -2.8444  -2.8025  -2.7976  -2.7819  -2.7738  -2.7602  -2.7007  -2.6507
    -2.6313  -2.5108  -2.4176  -2.3403  -2.2795  -2.2602  -2.2370  -2.2297
    -2.1880  -2.1377  -2.1354  -2.0034  -1.9928  -1.9481  -1.8748  -1.8690
    -1.8197  -1.7578  -1.7124  -1.6967  -1.5341  -1.4904  -1.3670  -1.3501
    -1.3296  -1.3138  -1.2904  -1.2199  -1.1858  -1.1772  -1.1115  -1.0823
    -1.0015  -0.9253  -0.8926  -0.8410  -0.8349  -0.8209  -0.7697  -0.7200
    -0.7074  -0.6003  -0.5363  -0.4799  -0.4501  -0.4361  -0.2182  -0.1738
    -0.1317  -0.0642   0.0497   0.1104   0.1831   0.3412   0.4491   0.5385
     0.7632   0.9318   1.7734   1.8856   2.5164   2.5404   2.6692   2.7908
     2.8147   2.8510   2.8839   2.9486   2.9808   3.0150

          k =-0.0760 0.0419 0.0000 ( 25078 PWs)   bands (ev):

   -56.6383 -56.6274 -56.6097 -56.6019 -56.5749 -56.5127 -56.5037 -56.4656
   -56.4029 -56.3780 -56.3769 -56.3759 -56.3509 -56.3118 -55.6070 -55.5829
   -33.0807 -32.9730 -32.9201 -32.9100 -32.8825 -32.8787 -32.8523 -32.8520
   -32.8261 -32.8216 -32.8000 -32.7789 -32.7702 -32.7565 -32.7542 -32.7457
   -32.7331 -32.7060 -32.7056 -32.6932 -32.6929 -32.6673 -32.6455 -32.6428
   -32.6407 -32.5986 -32.5961 -32.5792 -32.5786 -32.5650 -32.5568 -32.5496
   -32.5487 -32.5479 -32.5387 -32.5118 -32.5012 -32.4977 -32.4816 -32.4750
   -32.4612 -32.4223 -31.9115 -31.8762 -31.8531 -31.7759 -31.7145 -31.6431
   -22.1267 -17.1257 -16.8729 -16.7152 -16.6572 -16.6483 -16.5744 -16.5333
   -16.4813 -16.4499 -16.3994 -16.3631 -16.3397 -16.3330 -16.3107 -16.2760
   -16.1969 -16.1461 -16.1238 -16.1112 -16.0640 -16.0570 -16.0091 -15.9605
   -15.9488 -15.8618 -15.8614 -15.7924 -15.7495 -15.7068 -14.8535 -14.1779
   -14.1006  -5.8595  -4.4225  -4.2042  -4.1620  -4.1105  -3.9110  -3.9083
    -3.8257  -3.7843  -3.7322  -3.7243  -3.6737  -3.6492  -3.6378  -3.6329
    -3.5963  -3.5350  -3.5224  -3.5038  -3.4010  -3.3861  -3.3137  -3.2818
    -3.2757  -3.2499  -3.2147  -3.1617  -3.1423  -3.1324  -3.0846  -3.0292
    -3.0128  -2.9591  -2.9326  -2.8431  -2.7199  -2.7158  -2.6486  -2.6352
    -2.6152  -2.5194  -2.3335  -2.3023  -2.2449  -2.2417  -2.1325  -2.1205
    -2.0685  -2.0628  -2.0096  -1.9931  -1.9255  -1.9184  -1.8989  -1.8289
    -1.8189  -1.7776  -1.7368  -1.6946  -1.6846  -1.6771  -1.6182  -1.5551
    -1.4678  -1.4474  -1.4254  -1.3982  -1.2933  -1.2878  -1.2688  -1.2352
    -1.1093  -1.1059  -1.0154  -0.9772  -0.9317  -0.9154  -0.7320  -0.6794
    -0.6313  -0.6268  -0.5178  -0.4590  -0.3914  -0.2903  -0.2196  -0.1598
    -0.1080  -0.0463  -0.0342  -0.0044   0.0294   0.1953   0.6387   0.6856
     0.8162   0.9601   1.7577   1.8962   2.5698   2.6536   2.7557   2.7753
     2.8392   2.8783   2.9072   2.9807   3.0527   3.1312

          k =-0.0760-0.0839 0.0000 ( 25128 PWs)   bands (ev):

   -56.6319 -56.6161 -56.6155 -56.6139 -56.5725 -56.5152 -56.4996 -56.4697
   -56.3931 -56.3879 -56.3748 -56.3671 -56.3598 -56.3140 -55.5949 -55.5949
   -32.9423 -32.9411 -32.8932 -32.8778 -32.8641 -32.8511 -32.8472 -32.8345
   -32.8122 -32.7984 -32.7802 -32.7790 -32.7735 -32.7645 -32.7573 -32.7306
   -32.7191 -32.7190 -32.7078 -32.7018 -32.6887 -32.6833 -32.6601 -32.6469
   -32.6431 -32.6335 -32.6331 -32.6270 -32.6191 -32.5689 -32.5675 -32.5642
   -32.5558 -32.5448 -32.5366 -32.5193 -32.5169 -32.5163 -32.5085 -32.4999
   -32.4789 -32.4561 -31.8645 -31.8645 -31.7793 -31.7792 -31.7452 -31.7452
   -22.1266 -16.8496 -16.8241 -16.6978 -16.5887 -16.5805 -16.5036 -16.4836
   -16.3990 -16.3854 -16.3741 -16.3393 -16.3271 -16.3014 -16.2839 -16.2269
   -16.1934 -16.1844 -16.1591 -16.1509 -16.0971 -16.0961 -16.0649 -16.0590
   -15.9870 -15.9848 -15.9521 -15.8753 -15.8670 -15.8356 -14.8542 -14.1633
   -14.1611  -5.8608  -4.1955  -4.1454  -4.0646  -4.0345  -3.8355  -3.7229
    -3.7127  -3.6611  -3.5821  -3.5546  -3.5109  -3.4780  -3.4339  -3.4316
    -3.4094  -3.3944  -3.3902  -3.3812  -3.3426  -3.3283  -3.2982  -3.2843
    -3.2561  -3.2044  -3.1892  -3.1813  -3.1721  -3.1383  -3.1236  -3.1062
    -3.1048  -3.0988  -2.8641  -2.8598  -2.7916  -2.7418  -2.7023  -2.6853
    -2.6719  -2.6197  -2.5988  -2.5562  -2.5233  -2.4595  -2.3402  -2.3070
    -2.3024  -2.2687  -2.2065  -2.0969  -2.0212  -1.9973  -1.9533  -1.8834
    -1.8729  -1.8210  -1.7354  -1.7001  -1.6729  -1.5933  -1.5274  -1.5142
    -1.5114  -1.5048  -1.4374  -1.3615  -1.3227  -1.3013  -1.2479  -1.1676
    -1.1589  -1.1469  -1.1386  -1.1316  -1.0296  -0.9863  -0.8128  -0.7003
    -0.6003  -0.5649  -0.5344  -0.4503  -0.3880  -0.2990  -0.2823  -0.1445
    -0.1292  -0.0788  -0.0374  -0.0122   0.0231   0.0584   0.7796   0.7821
     0.8869   0.8954   1.7643   1.9003   2.6732   2.7159   2.7465   2.8013
     2.9631   2.9936   3.0360   3.0439   3.0674   3.1622

     the Fermi energy is     2.6386 ev

!    total energy              =   -3332.83648353 Ry
     estimated scf accuracy    <       0.00000007 Ry
     smearing contrib. (-TS)   =      -0.00037289 Ry
     internal energy E=F+TS    =   -3332.83611064 Ry

     The total energy is F=E-TS. E is the sum of the following terms:
     one-electron contribution =  -23767.79851232 Ry
     hartree contribution      =   11973.27072342 Ry
     xc contribution           =    -558.44024748 Ry
     ewald contribution        =    9352.18854826 Ry
     electric field correction =       0.00042275 Ry
     one-center paw contrib.   =    -332.05704526 Ry

     total magnetization       =    -0.87 Bohr mag/cell
     absolute magnetization    =     1.25 Bohr mag/cell

     convergence has been achieved in  16 iterations

     negative rho (up, down):  1.117E-02 1.013E-02

     Forces acting on atoms (cartesian axes, Ry/au):

     atom    1 type  1   force =     0.00007132    0.00005212    0.10943270
     atom    2 type  1   force =    -0.00008772   -0.00014044   -0.17902852
     atom    3 type  2   force =     0.00005918    0.00006906   -0.02869952
     atom    4 type  2   force =     0.00002072    0.00005179    0.04945469
     atom    5 type  2   force =    -0.02067586   -0.00134376    0.00613642
     atom    6 type  2   force =     0.02059038   -0.00085857    0.00613525
     atom    7 type  1   force =    -0.00001129    0.00038015   -0.00556919
     atom    8 type  1   force =    -0.00001587    0.00960840   -0.01216252
     atom    9 type  2   force =     0.00003867    0.00006206    0.00002184
     atom   10 type  2   force =     0.00001724    0.00007566    0.00789656
     atom   11 type  2   force =     0.00075227    0.00016660    0.00008941
     atom   12 type  2   force =    -0.00070690    0.00019397   -0.00000056
     atom   13 type  1   force =     0.00006119    0.00029013   -0.00132920
     atom   14 type  1   force =    -0.00006304   -0.00007705   -0.00065858
     atom   15 type  2   force =    -0.00004383    0.00006652    0.00005695
     atom   16 type  2   force =    -0.00000608   -0.00004397   -0.00050423
     atom   17 type  2   force =    -0.00118157    0.00004305   -0.00005548
     atom   18 type  2   force =     0.00087098    0.00005759   -0.00004728
     atom   19 type  1   force =    -0.00006556    0.00049396   -0.00037556
     atom   20 type  1   force =     0.00048706   -0.00106660   -0.00221885
     atom   21 type  2   force =     0.00005819    0.00008415    0.10270025
     atom   22 type  2   force =    -0.00005232    0.00029916    0.00288330
     atom   23 type  2   force =    -0.06802425    0.00053468   -0.03025079
     atom   24 type  2   force =     0.06793605    0.00096347   -0.03029088
     atom   25 type  1   force =     0.00007546   -0.00001205    0.11949271
     atom   26 type  1   force =    -0.00009007    0.00004466   -0.17899182
     atom   27 type  2   force =     0.00004988   -0.00005623   -0.02641457
     atom   28 type  2   force =     0.00002077   -0.00000491    0.05042939
     atom   29 type  2   force =    -0.02053006    0.00073431    0.00618590
     atom   30 type  2   force =     0.02046283    0.00122863    0.00617910
     atom   31 type  1   force =    -0.00000042   -0.00043998   -0.00616797
     atom   32 type  1   force =    -0.00002008   -0.00978454   -0.01184376
     atom   33 type  2   force =     0.00000957   -0.00000969   -0.00038484
     atom   34 type  2   force =     0.00005713    0.00040021    0.00167878
     atom   35 type  2   force =     0.00076249   -0.00020363    0.00001172
     atom   36 type  2   force =    -0.00072186   -0.00023457   -0.00008440
     atom   37 type  1   force =     0.00002962    0.00004541    0.00023423
     atom   38 type  1   force =    -0.00006455    0.00024941   -0.00062771
     atom   39 type  2   force =    -0.00016324    0.00031206    0.00188366
     atom   40 type  2   force =     0.00001152   -0.00001751   -0.00215283
     atom   41 type  2   force =    -0.00050548   -0.00030326    0.00060231
     atom   42 type  2   force =     0.00017243   -0.00036207    0.00072392
     atom   43 type  1   force =     0.00044212   -0.00086980    0.00003568
     atom   44 type  1   force =     0.00060437    0.00084161   -0.00000566
     atom   45 type  2   force =     0.00005916    0.00008499    0.10275322
     atom   46 type  3   force =     0.00042992    0.00040767   -0.00015337
     atom   47 type  2   force =    -0.06802411   -0.00093917   -0.03024361
     atom   48 type  2   force =     0.06794305   -0.00050966   -0.03028265
     atom   49 type  2   force =    -0.00173976   -0.00051516    0.00390838
     atom   50 type  2   force =     0.00070033   -0.00004880   -0.00038199

     Total force =     0.377658     Total SCF correction =     0.000602
  @ DRIVER MODE: Message from server: STATUS
  @ DRIVER MODE: Message from server: GETFORCE
  @ DRIVER MODE: Returning v,forces,stress,ensemble 

     Writing output data file ./calc.save/
  @ DRIVER MODE: Message from server: STATUS
  @ DRIVER MODE: Message from server: INIT
  @ DRIVER MODE: Receiving replica           0           0
  @ DRIVER MODE: Receiving encoded integer          25
  @ DRIVER MODE:  SCF:  T  FORCE:  T  STRESS:  F  VC:  F  ENSEMBLE:  F
  @ DRIVER MODE:  SCF:  T  FORCE:  T  STRESS:  F  VC:  F  ENSEMBLE:  F
  @ DRIVER MODE: Message from server: STATUS
  @ DRIVER MODE: Message from server: POSDATA
  @ DRIVER MODE: Reading and sharing positions 
  @ DRIVER MODE: Received positions 
     NEW-OLD atomic charge density approx. for the potential

     Check: negative core charge=   -0.000008

     negative rho (up, down):  1.124E-02 1.021E-02
 
     Adding external electric field

     Computed dipole along edir(3) : 
        Dipole               -0.4847 Ry au,         -1.2321 Debye
        Dipole field         -0.0009 Ry au, 
 
        Potential amp.        0.0848 Ry
        Total length         46.3494 bohr
 
 
     Adding external electric field

     Computed dipole along edir(3) : 
        Dipole               -0.4847 Ry au,         -1.2321 Debye
        Dipole field         -0.0009 Ry au, 
 
        Potential amp.        0.0848 Ry
        Total length         46.3494 bohr
 
     Generating pointlists ...

     total cpu time spent up to now is    43095.5 secs

     Self-consistent Calculation

     iteration #  1     ecut=    36.75 Ry     beta= 0.05
     Davidson diagonalization with overlap
     c_bands:  5 eigenvalues not converged
     c_bands:  2 eigenvalues not converged
     c_bands:  1 eigenvalues not converged
     c_bands:  2 eigenvalues not converged
     c_bands:  2 eigenvalues not converged
     c_bands:  1 eigenvalues not converged
