
     Program PWSCF v.6.7GPU starts on 16Feb2022 at  0:32:33 

     This program is part of the open-source Quantum ESPRESSO suite
     for quantum simulation of materials; please cite
         "P. Giannozzi et al., J. Phys.:Condens. Matter 21 395502 (2009);
         "P. Giannozzi et al., J. Phys.:Condens. Matter 29 465901 (2017);
         "P. Giannozzi et al., J. Chem. Phys. 152 154105 (2020);
          URL http://www.quantum-espresso.org", 
     in publications or presentations arising from this work. More details at
     http://www.quantum-espresso.org/quote

     Parallel version (MPI), running on    16 processors

     MPI processes distributed on     1 nodes
     R & G space division:  proc/nbgrp/npool/nimage =      16
     Reading input from /storage/coda1/p-amedford6/0/bchen380/B22/N2_B/qe_3983488.sched-torque.pace.gatech.edu/pw.inp
Warning: card &CELL ignored
Warning: card   CELL_DYNAMICS='IPI', ignored
Warning: card / ignored

     Current dimensions of program PWSCF are:
     Max number of different atomic species (ntypx) = 10
     Max number of k-points (npk) =  40000
     Max angular momentum in pseudopotentials (lmaxx) =  3
     Message from routine cell_base_init:
     DEPRECATED: use true lattice parameter, not A to a.u. conversion factor
     file O.UPF: wavefunction(s)  2P renormalized

     **************************************************************************
     Initializing libbeef V0.1.2 with the BEEF-vdW functional.
     Citation: Wellendorff et al., PRB 85, 235149 (2012).
     **************************************************************************


     IMPORTANT: XC functional enforced from input :
     Exchange-correlation= BEEF-VDW
                           (   1   4  43  14   2   0   0)
     Any further DFT definition will be discarded
     Please, verify this is what you really want


     Subspace diagonalization in iterative solution of the eigenvalue problem:
     one sub-group per band group will be used
     scalapack distributed-memory algorithm (size of sub-group:  4*  4 procs)

  @ DRIVER MODE: Connecting to 
 qe_1064200_3983488.sched-torque.pace.gatech.edukn_bu6fo_scratch
  using UNIX socket
  @ DRIVER MODE: Message from server: STATUS
  @ DRIVER MODE: Message from server: INIT
  @ DRIVER MODE: Receiving replica           0          -1
  @ DRIVER MODE: Receiving encoded integer          25
  @ DRIVER MODE:  SCF:  T  FORCE:  T  STRESS:  F  VC:  F  ENSEMBLE:  F
  @ DRIVER MODE:  SCF:  T  FORCE:  T  STRESS:  F  VC:  F  ENSEMBLE:  F
 
     Parallelization info
     --------------------
     sticks:   dense  smooth     PW     G-vecs:    dense   smooth      PW
     Min         256     102     28                49498    12526    1868
     Max         257     103     29                49510    12535    1881
     Sum        4097    1637    459               792059   200495   30031
 
     Using Slab Decomposition
 


     bravais-lattice index     =            0
     lattice parameter (alat)  =       1.8897  a.u.
     unit-cell volume          =    6658.9804 (a.u.)^3
     number of atoms/cell      =           50
     number of atomic types    =            4
     number of electrons       =       391.00
     number of Kohn-Sham states=          205
     kinetic-energy cutoff     =      36.7493  Ry
     charge density cutoff     =     367.4932  Ry
     scf convergence threshold =      7.3E-08
     mixing beta               =       0.0500
     number of iterations used =            8  plain     mixing
     Exchange-correlation= BEEF-VDW
                           (   1   4  43  14   2   0   0)

     celldm(1)=   1.889726  celldm(2)=   0.000000  celldm(3)=   0.000000
     celldm(4)=   0.000000  celldm(5)=   0.000000  celldm(6)=   0.000000

     crystal axes: (cart. coord. in units of alat)
               a(1) = (   6.579727   0.000000   0.000000 )  
               a(2) = (  -0.000775   5.961596   0.000000 )  
               a(3) = (   0.000000   0.000000  25.155947 )  

     reciprocal axes: (cart. coord. in units 2 pi/alat)
               b(1) = (  0.151982  0.000020  0.000000 )  
               b(2) = (  0.000000  0.167740  0.000000 )  
               b(3) = (  0.000000  0.000000  0.039752 )  


     PseudoPot. # 1 for Ti read from file:
     /storage/coda1/p-amedford6/0/shared/rich_project_chbe-medford/medford-share/data/pseudos_module/espresso/esp_pseudos_old/Ti.UPF
     MD5 check sum: 88a00a6731bd790ddea75d31a80cb452
     Pseudo is Ultrasoft + core correction, Zval = 12.0
     Generated by new atomic code, or converted to UPF format
     Using radial grid of  851 points,  6 beta functions with: 
                l(1) =   0
                l(2) =   0
                l(3) =   1
                l(4) =   1
                l(5) =   2
                l(6) =   2
     Q(r) pseudized with  6 coefficients,  rinner =    1.000   1.000   1.000
                                                       1.000   1.000

     PseudoPot. # 2 for O  read from file:
     /storage/coda1/p-amedford6/0/shared/rich_project_chbe-medford/medford-share/data/pseudos_module/espresso/esp_pseudos_old/O.UPF
     MD5 check sum: 0234752ac141de4415c5fc33072bef88
     Pseudo is Projector augmented-wave + core cor, Zval =  6.0
     Generated using "atomic" code by A. Dal Corso  v.5.0.99 svn rev. 10869
     Shape of augmentation charge: BESSEL
     Using radial grid of 1095 points,  4 beta functions with: 
                l(1) =   0
                l(2) =   0
                l(3) =   1
                l(4) =   1
     Q(r) pseudized with 0 coefficients 


     PseudoPot. # 3 for B  read from file:
     /storage/coda1/p-amedford6/0/shared/rich_project_chbe-medford/medford-share/data/pseudos_module/espresso/esp_pseudos_old/B.UPF
     MD5 check sum: cc6de2960df11db49a60e589f9ebb39b
     Pseudo is Ultrasoft + core correction, Zval =  3.0
     Generated by new atomic code, or converted to UPF format
     Using radial grid of  781 points,  4 beta functions with: 
                l(1) =   0
                l(2) =   0
                l(3) =   1
                l(4) =   1
     Q(r) pseudized with  8 coefficients,  rinner =    1.100   1.100   1.100


     PseudoPot. # 4 for N  read from file:
     /storage/coda1/p-amedford6/0/shared/rich_project_chbe-medford/medford-share/data/pseudos_module/espresso/esp_pseudos_old/N.UPF
     MD5 check sum: 16739722b17309cd8fe442a2ace49922
     Pseudo is Ultrasoft + core correction, Zval =  5.0
     Generated using "atomic" code by A. Dal Corso  v.5.1
     Using radial grid of 1085 points,  4 beta functions with: 
                l(1) =   0
                l(2) =   0
                l(3) =   1
                l(4) =   1
     Q(r) pseudized with 0 coefficients 


     atomic species   valence    mass     pseudopotential
        Ti1           12.00    47.86700     Ti( 1.00)
        O1             6.00    15.99900     O ( 1.00)
        B1             3.00    10.81000     B ( 1.00)
        N1             5.00    14.00700     N ( 1.00)

     Starting magnetic structure 
     atomic species   magnetization
        Ti1          0.000
        O1           0.000
        B1           0.000
        N1           0.000

     No symmetry found



   Cartesian axes

     site n.     atom                  positions (alat units)
         1           Ti1 tau(   1) = (   0.0004258   2.9801865   6.0000000  )
         2           Ti1 tau(   2) = (   3.2906075   1.4906267   6.0002472  )
         3           O1  tau(   3) = (   0.0006271   0.0005054   7.9858123  )
         4           O1  tau(   4) = (   3.2906025   0.0005020   7.3038282  )
         5           O1  tau(   5) = (   4.5942328   1.4918067   9.2879030  )
         6           O1  tau(   6) = (   1.9868534   1.4903216   9.2879459  )
         7           Ti1 tau(   7) = (   3.2905683   2.9818392   9.1597947  )
         8           Ti1 tau(   8) = (   0.0009689   1.5052867   9.3302970  )
         9           O1  tau(   9) = (   3.2907689   0.0016648  11.3563317  )
        10           O1  tau(  10) = (   0.0007044   0.0001637  10.5878211  )
        11           O1  tau(  11) = (   1.3004573   1.4911895  12.6196604  )
        12           O1  tau(  12) = (   5.2803146   1.4910465  12.6198809  )
        13           Ti1 tau(  13) = (   0.0003545   2.9813121  12.7572432  )
        14           Ti1 tau(  14) = (   3.2903971   1.4912328  12.5002874  )
        15           O1  tau(  15) = (  -0.0002320   5.9576404  14.5977444  )
        16           O1  tau(  16) = (   3.2901645   0.0058045  13.9855309  )
        17           O1  tau(  17) = (   4.5492778   1.5221801  16.1329724  )
        18           O1  tau(  18) = (   2.0311275   1.5222091  16.1330501  )
        19           Ti1 tau(  19) = (   3.2902041   2.9895352  15.7368220  )
        20           Ti1 tau(  20) = (   0.0001478   1.4235607  15.9669019  )
        21           O1  tau(  21) = (   3.2904802   0.0005063   4.7018136  )
        22           O1  tau(  22) = (   0.0000052   5.9613278  17.1620205  )
        23           O1  tau(  23) = (   1.3043587   1.4918075   6.0039043  )
        24           O1  tau(  24) = (   5.2767064   1.4903225   6.0039473  )
        25           Ti1 tau(  25) = (   0.0000382   5.9609847   6.0000000  )
        26           Ti1 tau(  26) = (   3.2902200   4.4714249   6.0002472  )
        27           O1  tau(  27) = (   0.0002396   2.9813036   7.9858123  )
        28           O1  tau(  28) = (   3.2902150   2.9813002   7.3038282  )
        29           O1  tau(  29) = (   4.5938453   4.4726049   9.2879030  )
        30           O1  tau(  30) = (   1.9864658   4.4711199   9.2879459  )
        31           Ti1 tau(  31) = (   3.2909982   0.0016570   9.1583503  )
        32           Ti1 tau(  32) = (   0.0005865   4.4518293   9.3323505  )
        33           O1  tau(  33) = (   3.2903422   2.9801403  11.3468332  )
        34           O1  tau(  34) = (   0.0003571   2.9798178  10.5649370  )
        35           O1  tau(  35) = (   1.3005412   4.4692167  12.6173387  )
        36           O1  tau(  36) = (   5.2794693   4.4690741  12.6175999  )
        37           Ti1 tau(  37) = (  -0.0000806   5.9612980  12.5816508  )
        38           Ti1 tau(  38) = (   3.2900041   4.4658170  12.4917948  )
        39           O1  tau(  39) = (   0.0004188   2.9814100  14.6485654  )
        40           O1  tau(  40) = (   3.2900918   2.9860882  13.9373905  )
        41           O1  tau(  41) = (   4.5492228   4.4522151  16.1330783  )
        42           O1  tau(  42) = (   2.0303863   4.4519659  16.1333203  )
        43           Ti1 tau(  43) = (   3.2899546   0.0061948  15.7807570  )
        44           Ti1 tau(  44) = (  -0.0001637   4.5606593  15.9768108  )
        45           O1  tau(  45) = (   3.2900926   2.9813045   4.7018136  )
        46           B1  tau(  46) = (   6.5792260   2.9590799  17.8640153  )
        47           O1  tau(  47) = (   1.3039711   4.4726057   6.0039043  )
        48           O1  tau(  48) = (   5.2763189   4.4711207   6.0039473  )
        49           N1  tau(  49) = (   6.3491669   2.7825235  19.0640153  )
        50           N1  tau(  50) = (   6.2271734   2.6017940  20.1640153  )

     number of k points=    10  Fermi-Dirac smearing, width (Ry)=  0.0007
                       cart. coord. in units 2pi/alat
        k(    1) = (   0.0000000   0.0000000   0.0000000), wk =   0.0625000
        k(    2) = (   0.0000000   0.0419351   0.0000000), wk =   0.1250000
        k(    3) = (   0.0000000  -0.0838702   0.0000000), wk =   0.0625000
        k(    4) = (   0.0379955   0.0000049   0.0000000), wk =   0.1250000
        k(    5) = (   0.0379955   0.0419400   0.0000000), wk =   0.1250000
        k(    6) = (   0.0379955  -0.0838652   0.0000000), wk =   0.1250000
        k(    7) = (   0.0379955  -0.0419301   0.0000000), wk =   0.1250000
        k(    8) = (  -0.0759910  -0.0000099   0.0000000), wk =   0.0625000
        k(    9) = (  -0.0759910   0.0419252   0.0000000), wk =   0.1250000
        k(   10) = (  -0.0759910  -0.0838800   0.0000000), wk =   0.0625000

     Dense  grid:   792059 G-vectors     FFT dimensions: (  75,  72, 300)

     Smooth grid:   200495 G-vectors     FFT dimensions: (  48,  45, 192)

     Estimated max dynamical RAM per process >     383.45 MB

     Estimated total dynamical RAM >       5.99 GB

     Check: negative core charge=   -0.000007
     Generating pointlists ...
     new r_m :   0.7405 (alat units)  1.3994 (a.u.) for type    1
     new r_m :   0.7405 (alat units)  1.3994 (a.u.) for type    2
     new r_m :   0.5092 (alat units)  0.9623 (a.u.) for type    3
     new r_m :   0.4626 (alat units)  0.8741 (a.u.) for type    4

     Initial potential from superposition of free atoms

     starting charge  374.99895, renormalised to  391.00000

     negative rho (up, down):  1.153E-02 1.153E-02


     %%%%%%%%%%%%%%%%%%%%%%%%%%%%%%%%%%%%%%%%%%%%%%%%%%%%%%%%%%%%%%%%%%%%%%%%
     %                                                                      %
     % You are using vdW-DF, which was implemented by the Thonhauser group. %
     % Please cite the following two papers that made this development      %
     % possible and the two reviews that describe the various versions:     %
     %                                                                      %
     %   T. Thonhauser et al., PRL 115, 136402 (2015).                      %
     %   T. Thonhauser et al., PRB 76, 125112 (2007).                       %
     %   K. Berland et al., Rep. Prog. Phys. 78, 066501 (2015).             %
     %   D.C. Langreth et al., J. Phys.: Condens. Matter 21, 084203 (2009). %
     %                                                                      %
     %                                                                      %
     % If you are calculating the stress with vdW-DF, please also cite:     %
     %                                                                      %
     %   R. Sabatini et al., J. Phys.: Condens. Matter 24, 424209 (2012).   %
     %                                                                      %
     %%%%%%%%%%%%%%%%%%%%%%%%%%%%%%%%%%%%%%%%%%%%%%%%%%%%%%%%%%%%%%%%%%%%%%%%


 
     Adding external electric field

     Computed dipole along edir(3) : 
        Dipole               -6.6121 Ry au,        -16.8064 Debye
        Dipole field         -0.0125 Ry au, 
 
        Potential amp.        1.1567 Ry
        Total length         46.3494 bohr
 
 
     Adding external electric field

     Computed dipole along edir(3) : 
        Dipole               -6.6121 Ry au,        -16.8064 Debye
        Dipole field         -0.0125 Ry au, 
 
        Potential amp.        1.1567 Ry
        Total length         46.3494 bohr
 
     Starting wfcs are  296 randomized atomic wfcs
     Checking if some PAW data can be deallocated... 
  @ DRIVER MODE: Message from server: STATUS
  @ DRIVER MODE: Message from server: POSDATA
  @ DRIVER MODE: Reading and sharing cell 
  @ DRIVER MODE: Reading and sharing positions 
  @ DRIVER MODE: Received positions 

     total cpu time spent up to now is       25.0 secs

     Self-consistent Calculation

     iteration #  1     ecut=    36.75 Ry     beta= 0.05
     Davidson diagonalization with overlap
     ethr =  1.00E-02,  avg # of iterations =  2.0

     negative rho (up, down):  1.097E-02 1.097E-02
 
     Adding external electric field

     Computed dipole along edir(3) : 
        Dipole               24.6752 Ry au,         62.7181 Debye
        Dipole field          0.0466 Ry au, 
 
        Potential amp.       -4.3166 Ry
        Total length         46.3494 bohr
 
 
     Adding external electric field

     Computed dipole along edir(3) : 
        Dipole               24.6752 Ry au,         62.7181 Debye
        Dipole field          0.0466 Ry au, 
 
        Potential amp.       -4.3166 Ry
        Total length         46.3494 bohr
 

     total cpu time spent up to now is       44.6 secs

     total energy              =   -3152.48010023 Ry
     estimated scf accuracy    <    1519.95831012 Ry

     total magnetization       =     0.01 Bohr mag/cell
     absolute magnetization    =     0.10 Bohr mag/cell

     iteration #  2     ecut=    36.75 Ry     beta= 0.05
     Davidson diagonalization with overlap
     ethr =  1.00E-02,  avg # of iterations = 15.2

     negative rho (up, down):  1.053E-02 1.053E-02
 
     Adding external electric field

     Computed dipole along edir(3) : 
        Dipole               -3.0303 Ry au,         -7.7022 Debye
        Dipole field         -0.0057 Ry au, 
 
        Potential amp.        0.5301 Ry
        Total length         46.3494 bohr
 
 
     Adding external electric field

     Computed dipole along edir(3) : 
        Dipole               -3.0303 Ry au,         -7.7022 Debye
        Dipole field         -0.0057 Ry au, 
 
        Potential amp.        0.5301 Ry
        Total length         46.3494 bohr
 

     total cpu time spent up to now is      128.1 secs

     total energy              =   -3008.15381356 Ry
     estimated scf accuracy    <   35801.37329128 Ry

     total magnetization       =     0.22 Bohr mag/cell
     absolute magnetization    =     0.79 Bohr mag/cell

     iteration #  3     ecut=    36.75 Ry     beta= 0.05
     Davidson diagonalization with overlap
     c_bands:  1 eigenvalues not converged
     ethr =  1.00E-02,  avg # of iterations = 13.2

     negative rho (up, down):  1.047E-02 1.047E-02
 
     Adding external electric field

     Computed dipole along edir(3) : 
        Dipole               -3.7948 Ry au,         -9.6454 Debye
        Dipole field         -0.0072 Ry au, 
 
        Potential amp.        0.6638 Ry
        Total length         46.3494 bohr
 
 
     Adding external electric field

     Computed dipole along edir(3) : 
        Dipole               -3.7948 Ry au,         -9.6454 Debye
        Dipole field         -0.0072 Ry au, 
 
        Potential amp.        0.6638 Ry
        Total length         46.3494 bohr
 

     total cpu time spent up to now is      191.4 secs

     total energy              =   -3277.23647257 Ry
     estimated scf accuracy    <    1216.32247389 Ry

     total magnetization       =     0.25 Bohr mag/cell
     absolute magnetization    =     0.84 Bohr mag/cell

     iteration #  4     ecut=    36.75 Ry     beta= 0.05
     Davidson diagonalization with overlap
     ethr =  1.00E-02,  avg # of iterations =  6.3

     negative rho (up, down):  1.045E-02 1.047E-02
 
     Adding external electric field

     Computed dipole along edir(3) : 
        Dipole               -4.9469 Ry au,        -12.5738 Debye
        Dipole field         -0.0093 Ry au, 
 
        Potential amp.        0.8654 Ry
        Total length         46.3494 bohr
 
 
     Adding external electric field

     Computed dipole along edir(3) : 
        Dipole               -4.9469 Ry au,        -12.5738 Debye
        Dipole field         -0.0093 Ry au, 
 
        Potential amp.        0.8654 Ry
        Total length         46.3494 bohr
 

     total cpu time spent up to now is      212.8 secs

     total energy              =   -3270.73762307 Ry
     estimated scf accuracy    <     854.91737622 Ry

     total magnetization       =     1.49 Bohr mag/cell
     absolute magnetization    =     1.91 Bohr mag/cell

     iteration #  5     ecut=    36.75 Ry     beta= 0.05
     Davidson diagonalization with overlap
     ethr =  1.00E-02,  avg # of iterations =  9.0

     negative rho (up, down):  1.056E-02 1.058E-02
 
     Adding external electric field

     Computed dipole along edir(3) : 
        Dipole               -4.4743 Ry au,        -11.3725 Debye
        Dipole field         -0.0084 Ry au, 
 
        Potential amp.        0.7827 Ry
        Total length         46.3494 bohr
 
 
     Adding external electric field

     Computed dipole along edir(3) : 
        Dipole               -4.4743 Ry au,        -11.3725 Debye
        Dipole field         -0.0084 Ry au, 
 
        Potential amp.        0.7827 Ry
        Total length         46.3494 bohr
 

     total cpu time spent up to now is      249.9 secs

     total energy              =   -3291.28314056 Ry
     estimated scf accuracy    <      22.49195845 Ry

     total magnetization       =     0.26 Bohr mag/cell
     absolute magnetization    =     0.52 Bohr mag/cell

     iteration #  6     ecut=    36.75 Ry     beta= 0.05
     Davidson diagonalization with overlap
     ethr =  5.75E-03,  avg # of iterations =  1.3

     negative rho (up, down):  1.159E-02 1.163E-02
 
     Adding external electric field

     Computed dipole along edir(3) : 
        Dipole               -1.1913 Ry au,         -3.0281 Debye
        Dipole field         -0.0022 Ry au, 
 
        Potential amp.        0.2084 Ry
        Total length         46.3494 bohr
 
 
     Adding external electric field

     Computed dipole along edir(3) : 
        Dipole               -1.1913 Ry au,         -3.0281 Debye
        Dipole field         -0.0022 Ry au, 
 
        Potential amp.        0.2084 Ry
        Total length         46.3494 bohr
 

     total cpu time spent up to now is      267.2 secs

     total energy              =   -3286.83101289 Ry
     estimated scf accuracy    <      19.42661228 Ry

     total magnetization       =     0.20 Bohr mag/cell
     absolute magnetization    =     0.50 Bohr mag/cell

     iteration #  7     ecut=    36.75 Ry     beta= 0.05
     Davidson diagonalization with overlap
     ethr =  4.97E-03,  avg # of iterations =  6.7

     negative rho (up, down):  1.160E-02 1.164E-02
 
     Adding external electric field

     Computed dipole along edir(3) : 
        Dipole               -1.2671 Ry au,         -3.2206 Debye
        Dipole field         -0.0024 Ry au, 
 
        Potential amp.        0.2217 Ry
        Total length         46.3494 bohr
 
 
     Adding external electric field

     Computed dipole along edir(3) : 
        Dipole               -1.2671 Ry au,         -3.2206 Debye
        Dipole field         -0.0024 Ry au, 
 
        Potential amp.        0.2217 Ry
        Total length         46.3494 bohr
 

     total cpu time spent up to now is      290.3 secs

     total energy              =   -3290.08159412 Ry
     estimated scf accuracy    <     234.09876330 Ry

     total magnetization       =    -0.10 Bohr mag/cell
     absolute magnetization    =     0.50 Bohr mag/cell

     iteration #  8     ecut=    36.75 Ry     beta= 0.05
     Davidson diagonalization with overlap
     ethr =  4.97E-03,  avg # of iterations =  1.0

     negative rho (up, down):  1.173E-02 1.175E-02
 
     Adding external electric field

     Computed dipole along edir(3) : 
        Dipole               -1.1603 Ry au,         -2.9492 Debye
        Dipole field         -0.0022 Ry au, 
 
        Potential amp.        0.2030 Ry
        Total length         46.3494 bohr
 
 
     Adding external electric field

     Computed dipole along edir(3) : 
        Dipole               -1.1603 Ry au,         -2.9492 Debye
        Dipole field         -0.0022 Ry au, 
 
        Potential amp.        0.2030 Ry
        Total length         46.3494 bohr
 

     total cpu time spent up to now is      307.1 secs

     total energy              =   -3290.19644484 Ry
     estimated scf accuracy    <     214.61154752 Ry

     total magnetization       =    -0.23 Bohr mag/cell
     absolute magnetization    =     0.46 Bohr mag/cell

     iteration #  9     ecut=    36.75 Ry     beta= 0.05
     Davidson diagonalization with overlap
     ethr =  4.97E-03,  avg # of iterations =  1.0

     negative rho (up, down):  1.163E-02 1.158E-02
 
     Adding external electric field

     Computed dipole along edir(3) : 
        Dipole               -2.1744 Ry au,         -5.5267 Debye
        Dipole field         -0.0041 Ry au, 
 
        Potential amp.        0.3804 Ry
        Total length         46.3494 bohr
 
 
     Adding external electric field

     Computed dipole along edir(3) : 
        Dipole               -2.1744 Ry au,         -5.5267 Debye
        Dipole field         -0.0041 Ry au, 
 
        Potential amp.        0.3804 Ry
        Total length         46.3494 bohr
 

     total cpu time spent up to now is      324.4 secs

     total energy              =   -3286.59871763 Ry
     estimated scf accuracy    <     235.68474998 Ry

     total magnetization       =    -0.26 Bohr mag/cell
     absolute magnetization    =     0.43 Bohr mag/cell

     iteration # 10     ecut=    36.75 Ry     beta= 0.05
     Davidson diagonalization with overlap
     ethr =  4.97E-03,  avg # of iterations =  4.7

     negative rho (up, down):  1.174E-02 1.168E-02
 
     Adding external electric field

     Computed dipole along edir(3) : 
        Dipole               -2.0315 Ry au,         -5.1635 Debye
        Dipole field         -0.0038 Ry au, 
 
        Potential amp.        0.3554 Ry
        Total length         46.3494 bohr
 
 
     Adding external electric field

     Computed dipole along edir(3) : 
        Dipole               -2.0315 Ry au,         -5.1635 Debye
        Dipole field         -0.0038 Ry au, 
 
        Potential amp.        0.3554 Ry
        Total length         46.3494 bohr
 

     total cpu time spent up to now is      344.6 secs

     total energy              =   -3288.62561768 Ry
     estimated scf accuracy    <      12.67064924 Ry

     total magnetization       =    -0.16 Bohr mag/cell
     absolute magnetization    =     0.37 Bohr mag/cell

     iteration # 11     ecut=    36.75 Ry     beta= 0.05
     Davidson diagonalization with overlap
     ethr =  3.24E-03,  avg # of iterations =  2.6

     negative rho (up, down):  1.177E-02 1.169E-02
 
     Adding external electric field

     Computed dipole along edir(3) : 
        Dipole               -1.9609 Ry au,         -4.9842 Debye
        Dipole field         -0.0037 Ry au, 
 
        Potential amp.        0.3430 Ry
        Total length         46.3494 bohr
 
 
     Adding external electric field

     Computed dipole along edir(3) : 
        Dipole               -1.9609 Ry au,         -4.9842 Debye
        Dipole field         -0.0037 Ry au, 
 
        Potential amp.        0.3430 Ry
        Total length         46.3494 bohr
 

     total cpu time spent up to now is      367.3 secs

     total energy              =   -3288.44797206 Ry
     estimated scf accuracy    <       7.45191220 Ry

     total magnetization       =    -0.26 Bohr mag/cell
     absolute magnetization    =     0.41 Bohr mag/cell

     iteration # 12     ecut=    36.75 Ry     beta= 0.05
     Davidson diagonalization with overlap
     ethr =  1.91E-03,  avg # of iterations =  2.1

     negative rho (up, down):  1.173E-02 1.165E-02
 
     Adding external electric field

     Computed dipole along edir(3) : 
        Dipole               -2.0370 Ry au,         -5.1774 Debye
        Dipole field         -0.0038 Ry au, 
 
        Potential amp.        0.3563 Ry
        Total length         46.3494 bohr
 
 
     Adding external electric field

     Computed dipole along edir(3) : 
        Dipole               -2.0370 Ry au,         -5.1774 Debye
        Dipole field         -0.0038 Ry au, 
 
        Potential amp.        0.3563 Ry
        Total length         46.3494 bohr
 

     total cpu time spent up to now is      385.6 secs

     total energy              =   -3288.72744547 Ry
     estimated scf accuracy    <       3.08949721 Ry

     total magnetization       =     0.06 Bohr mag/cell
     absolute magnetization    =     0.61 Bohr mag/cell

     iteration # 13     ecut=    36.75 Ry     beta= 0.05
     Davidson diagonalization with overlap
     ethr =  7.90E-04,  avg # of iterations =  3.9

     negative rho (up, down):  1.149E-02 1.148E-02
 
     Adding external electric field

     Computed dipole along edir(3) : 
        Dipole               -2.1258 Ry au,         -5.4033 Debye
        Dipole field         -0.0040 Ry au, 
 
        Potential amp.        0.3719 Ry
        Total length         46.3494 bohr
 
 
     Adding external electric field

     Computed dipole along edir(3) : 
        Dipole               -2.1258 Ry au,         -5.4033 Debye
        Dipole field         -0.0040 Ry au, 
 
        Potential amp.        0.3719 Ry
        Total length         46.3494 bohr
 

     total cpu time spent up to now is      407.3 secs

     total energy              =   -3288.80493382 Ry
     estimated scf accuracy    <       1.66160537 Ry

     total magnetization       =    -0.09 Bohr mag/cell
     absolute magnetization    =     0.29 Bohr mag/cell

     iteration # 14     ecut=    36.75 Ry     beta= 0.05
     Davidson diagonalization with overlap
     ethr =  4.25E-04,  avg # of iterations =  4.3

     negative rho (up, down):  1.145E-02 1.146E-02
 
     Adding external electric field

     Computed dipole along edir(3) : 
        Dipole               -1.4919 Ry au,         -3.7920 Debye
        Dipole field         -0.0028 Ry au, 
 
        Potential amp.        0.2610 Ry
        Total length         46.3494 bohr
 
 
     Adding external electric field

     Computed dipole along edir(3) : 
        Dipole               -1.4919 Ry au,         -3.7920 Debye
        Dipole field         -0.0028 Ry au, 
 
        Potential amp.        0.2610 Ry
        Total length         46.3494 bohr
 

     total cpu time spent up to now is      428.9 secs

     total energy              =   -3288.46896997 Ry
     estimated scf accuracy    <       5.30636002 Ry

     total magnetization       =    -0.15 Bohr mag/cell
     absolute magnetization    =     0.22 Bohr mag/cell

     iteration # 15     ecut=    36.75 Ry     beta= 0.05
     Davidson diagonalization with overlap
     c_bands:  2 eigenvalues not converged
     c_bands:  1 eigenvalues not converged
     ethr =  4.25E-04,  avg # of iterations = 15.3

     negative rho (up, down):  1.141E-02 1.140E-02
 
     Adding external electric field

     Computed dipole along edir(3) : 
        Dipole               -1.6544 Ry au,         -4.2051 Debye
        Dipole field         -0.0031 Ry au, 
 
        Potential amp.        0.2894 Ry
        Total length         46.3494 bohr
 
 
     Adding external electric field

     Computed dipole along edir(3) : 
        Dipole               -1.6544 Ry au,         -4.2051 Debye
        Dipole field         -0.0031 Ry au, 
 
        Potential amp.        0.2894 Ry
        Total length         46.3494 bohr
 

     total cpu time spent up to now is      466.5 secs

     total energy              =   -3288.76336265 Ry
     estimated scf accuracy    <       8.39972077 Ry

     total magnetization       =     0.07 Bohr mag/cell
     absolute magnetization    =     0.15 Bohr mag/cell

     iteration # 16     ecut=    36.75 Ry     beta= 0.05
     Davidson diagonalization with overlap
     ethr =  4.25E-04,  avg # of iterations =  1.9

     negative rho (up, down):  1.120E-02 1.120E-02
 
     Adding external electric field

     Computed dipole along edir(3) : 
        Dipole               -1.8213 Ry au,         -4.6294 Debye
        Dipole field         -0.0034 Ry au, 
 
        Potential amp.        0.3186 Ry
        Total length         46.3494 bohr
 
 
     Adding external electric field

     Computed dipole along edir(3) : 
        Dipole               -1.8213 Ry au,         -4.6294 Debye
        Dipole field         -0.0034 Ry au, 
 
        Potential amp.        0.3186 Ry
        Total length         46.3494 bohr
 

     total cpu time spent up to now is      485.0 secs

     total energy              =   -3288.74538184 Ry
     estimated scf accuracy    <       1.37763039 Ry

     total magnetization       =     0.08 Bohr mag/cell
     absolute magnetization    =     0.14 Bohr mag/cell

     iteration # 17     ecut=    36.75 Ry     beta= 0.05
     Davidson diagonalization with overlap
     ethr =  3.52E-04,  avg # of iterations =  1.8

     negative rho (up, down):  1.119E-02 1.115E-02
 
     Adding external electric field

     Computed dipole along edir(3) : 
        Dipole               -1.8399 Ry au,         -4.6764 Debye
        Dipole field         -0.0035 Ry au, 
 
        Potential amp.        0.3219 Ry
        Total length         46.3494 bohr
 
 
     Adding external electric field

     Computed dipole along edir(3) : 
        Dipole               -1.8399 Ry au,         -4.6764 Debye
        Dipole field         -0.0035 Ry au, 
 
        Potential amp.        0.3219 Ry
        Total length         46.3494 bohr
 

     total cpu time spent up to now is      503.3 secs

     total energy              =   -3288.78532028 Ry
     estimated scf accuracy    <      13.45698796 Ry

     total magnetization       =    -0.05 Bohr mag/cell
     absolute magnetization    =     0.15 Bohr mag/cell

     iteration # 18     ecut=    36.75 Ry     beta= 0.05
     Davidson diagonalization with overlap
     ethr =  3.52E-04,  avg # of iterations =  7.4

     negative rho (up, down):  1.115E-02 1.109E-02
 
     Adding external electric field

     Computed dipole along edir(3) : 
        Dipole               -1.6414 Ry au,         -4.1719 Debye
        Dipole field         -0.0031 Ry au, 
 
        Potential amp.        0.2871 Ry
        Total length         46.3494 bohr
 
 
     Adding external electric field

     Computed dipole along edir(3) : 
        Dipole               -1.6414 Ry au,         -4.1719 Debye
        Dipole field         -0.0031 Ry au, 
 
        Potential amp.        0.2871 Ry
        Total length         46.3494 bohr
 

     total cpu time spent up to now is      529.0 secs

     total energy              =   -3288.86125404 Ry
     estimated scf accuracy    <       8.93393227 Ry

     total magnetization       =     0.01 Bohr mag/cell
     absolute magnetization    =     0.16 Bohr mag/cell

     iteration # 19     ecut=    36.75 Ry     beta= 0.05
     Davidson diagonalization with overlap
     c_bands:  2 eigenvalues not converged
     ethr =  3.52E-04,  avg # of iterations =  8.8

     negative rho (up, down):  1.107E-02 1.105E-02
 
     Adding external electric field

     Computed dipole along edir(3) : 
        Dipole               -1.5143 Ry au,         -3.8489 Debye
        Dipole field         -0.0029 Ry au, 
 
        Potential amp.        0.2649 Ry
        Total length         46.3494 bohr
 
 
     Adding external electric field

     Computed dipole along edir(3) : 
        Dipole               -1.5143 Ry au,         -3.8489 Debye
        Dipole field         -0.0029 Ry au, 
 
        Potential amp.        0.2649 Ry
        Total length         46.3494 bohr
 

     total cpu time spent up to now is      552.2 secs

     total energy              =   -3288.83526043 Ry
     estimated scf accuracy    <       1.91971967 Ry

     total magnetization       =     0.45 Bohr mag/cell
     absolute magnetization    =     0.51 Bohr mag/cell

     iteration # 20     ecut=    36.75 Ry     beta= 0.05
     Davidson diagonalization with overlap
     ethr =  3.52E-04,  avg # of iterations =  1.9

     negative rho (up, down):  1.100E-02 1.100E-02
 
     Adding external electric field

     Computed dipole along edir(3) : 
        Dipole               -1.2226 Ry au,         -3.1075 Debye
        Dipole field         -0.0023 Ry au, 
 
        Potential amp.        0.2139 Ry
        Total length         46.3494 bohr
 
 
     Adding external electric field

     Computed dipole along edir(3) : 
        Dipole               -1.2226 Ry au,         -3.1075 Debye
        Dipole field         -0.0023 Ry au, 
 
        Potential amp.        0.2139 Ry
        Total length         46.3494 bohr
 

     total cpu time spent up to now is      570.9 secs

     total energy              =   -3288.84692860 Ry
     estimated scf accuracy    <       1.97643797 Ry

     total magnetization       =     0.02 Bohr mag/cell
     absolute magnetization    =     0.09 Bohr mag/cell

     iteration # 21     ecut=    36.75 Ry     beta= 0.05
     Davidson diagonalization with overlap
     ethr =  3.52E-04,  avg # of iterations =  3.4

     negative rho (up, down):  1.091E-02 1.092E-02
 
     Adding external electric field

     Computed dipole along edir(3) : 
        Dipole               -1.0670 Ry au,         -2.7120 Debye
        Dipole field         -0.0020 Ry au, 
 
        Potential amp.        0.1866 Ry
        Total length         46.3494 bohr
 
 
     Adding external electric field

     Computed dipole along edir(3) : 
        Dipole               -1.0670 Ry au,         -2.7120 Debye
        Dipole field         -0.0020 Ry au, 
 
        Potential amp.        0.1866 Ry
        Total length         46.3494 bohr
 

     total cpu time spent up to now is      590.5 secs

     total energy              =   -3288.81035607 Ry
     estimated scf accuracy    <       1.56482254 Ry

     total magnetization       =     0.38 Bohr mag/cell
     absolute magnetization    =     0.43 Bohr mag/cell

     iteration # 22     ecut=    36.75 Ry     beta= 0.05
     Davidson diagonalization with overlap
     ethr =  3.52E-04,  avg # of iterations =  5.0

     negative rho (up, down):  1.082E-02 1.082E-02
 
     Adding external electric field

     Computed dipole along edir(3) : 
        Dipole               -0.7281 Ry au,         -1.8505 Debye
        Dipole field         -0.0014 Ry au, 
 
        Potential amp.        0.1274 Ry
        Total length         46.3494 bohr
 
 
     Adding external electric field

     Computed dipole along edir(3) : 
        Dipole               -0.7281 Ry au,         -1.8505 Debye
        Dipole field         -0.0014 Ry au, 
 
        Potential amp.        0.1274 Ry
        Total length         46.3494 bohr
 

     total cpu time spent up to now is      611.0 secs

     total energy              =   -3288.85070569 Ry
     estimated scf accuracy    <       1.24774881 Ry

     total magnetization       =     0.30 Bohr mag/cell
     absolute magnetization    =     0.35 Bohr mag/cell

     iteration # 23     ecut=    36.75 Ry     beta= 0.05
     Davidson diagonalization with overlap
     ethr =  3.19E-04,  avg # of iterations =  3.4

     negative rho (up, down):  1.106E-02 1.105E-02
 
     Adding external electric field

     Computed dipole along edir(3) : 
        Dipole               -1.5017 Ry au,         -3.8169 Debye
        Dipole field         -0.0028 Ry au, 
 
        Potential amp.        0.2627 Ry
        Total length         46.3494 bohr
 
 
     Adding external electric field

     Computed dipole along edir(3) : 
        Dipole               -1.5017 Ry au,         -3.8169 Debye
        Dipole field         -0.0028 Ry au, 
 
        Potential amp.        0.2627 Ry
        Total length         46.3494 bohr
 

     total cpu time spent up to now is      630.2 secs

     total energy              =   -3288.58522643 Ry
     estimated scf accuracy    <       1.80154319 Ry

     total magnetization       =     0.96 Bohr mag/cell
     absolute magnetization    =     1.01 Bohr mag/cell

     iteration # 24     ecut=    36.75 Ry     beta= 0.05
     Davidson diagonalization with overlap
     c_bands:  2 eigenvalues not converged
     c_bands:  1 eigenvalues not converged
     ethr =  3.19E-04,  avg # of iterations = 12.1

     negative rho (up, down):  1.081E-02 1.082E-02
 
     Adding external electric field

     Computed dipole along edir(3) : 
        Dipole               -0.8870 Ry au,         -2.2545 Debye
        Dipole field         -0.0017 Ry au, 
 
        Potential amp.        0.1552 Ry
        Total length         46.3494 bohr
 
 
     Adding external electric field

     Computed dipole along edir(3) : 
        Dipole               -0.8870 Ry au,         -2.2545 Debye
        Dipole field         -0.0017 Ry au, 
 
        Potential amp.        0.1552 Ry
        Total length         46.3494 bohr
 

     total cpu time spent up to now is      658.5 secs

     total energy              =   -3288.68814810 Ry
     estimated scf accuracy    <       1.52790524 Ry

     total magnetization       =     0.40 Bohr mag/cell
     absolute magnetization    =     0.51 Bohr mag/cell

     iteration # 25     ecut=    36.75 Ry     beta= 0.05
     Davidson diagonalization with overlap
     ethr =  3.19E-04,  avg # of iterations =  5.2

     negative rho (up, down):  1.087E-02 1.088E-02
 
     Adding external electric field

     Computed dipole along edir(3) : 
        Dipole               -0.9707 Ry au,         -2.4672 Debye
        Dipole field         -0.0018 Ry au, 
 
        Potential amp.        0.1698 Ry
        Total length         46.3494 bohr
 
 
     Adding external electric field

     Computed dipole along edir(3) : 
        Dipole               -0.9707 Ry au,         -2.4672 Debye
        Dipole field         -0.0018 Ry au, 
 
        Potential amp.        0.1698 Ry
        Total length         46.3494 bohr
 

     total cpu time spent up to now is      680.2 secs

     total energy              =   -3288.75885550 Ry
     estimated scf accuracy    <       0.78687621 Ry

     total magnetization       =     0.63 Bohr mag/cell
     absolute magnetization    =     0.68 Bohr mag/cell

     iteration # 26     ecut=    36.75 Ry     beta= 0.05
     Davidson diagonalization with overlap
     ethr =  2.01E-04,  avg # of iterations =  2.4

     negative rho (up, down):  1.078E-02 1.076E-02
 
     Adding external electric field

     Computed dipole along edir(3) : 
        Dipole               -1.0613 Ry au,         -2.6976 Debye
        Dipole field         -0.0020 Ry au, 
 
        Potential amp.        0.1857 Ry
        Total length         46.3494 bohr
 
 
     Adding external electric field

     Computed dipole along edir(3) : 
        Dipole               -1.0613 Ry au,         -2.6976 Debye
        Dipole field         -0.0020 Ry au, 
 
        Potential amp.        0.1857 Ry
        Total length         46.3494 bohr
 

     total cpu time spent up to now is      703.8 secs

     total energy              =   -3288.71272422 Ry
     estimated scf accuracy    <       0.77071620 Ry

     total magnetization       =     0.60 Bohr mag/cell
     absolute magnetization    =     0.64 Bohr mag/cell

     iteration # 27     ecut=    36.75 Ry     beta= 0.05
     Davidson diagonalization with overlap
     ethr =  1.97E-04,  avg # of iterations =  8.1

     negative rho (up, down):  1.077E-02 1.076E-02
 
     Adding external electric field

     Computed dipole along edir(3) : 
        Dipole               -0.9361 Ry au,         -2.3792 Debye
        Dipole field         -0.0018 Ry au, 
 
        Potential amp.        0.1638 Ry
        Total length         46.3494 bohr
 
 
     Adding external electric field

     Computed dipole along edir(3) : 
        Dipole               -0.9361 Ry au,         -2.3792 Debye
        Dipole field         -0.0018 Ry au, 
 
        Potential amp.        0.1638 Ry
        Total length         46.3494 bohr
 

     total cpu time spent up to now is      726.8 secs

     total energy              =   -3288.76339378 Ry
     estimated scf accuracy    <       0.77403299 Ry

     total magnetization       =     0.90 Bohr mag/cell
     absolute magnetization    =     0.95 Bohr mag/cell

     iteration # 28     ecut=    36.75 Ry     beta= 0.05
     Davidson diagonalization with overlap
     ethr =  1.97E-04,  avg # of iterations =  1.8

     negative rho (up, down):  1.082E-02 1.079E-02
 
     Adding external electric field

     Computed dipole along edir(3) : 
        Dipole               -0.3844 Ry au,         -0.9771 Debye
        Dipole field         -0.0007 Ry au, 
 
        Potential amp.        0.0672 Ry
        Total length         46.3494 bohr
 
 
     Adding external electric field

     Computed dipole along edir(3) : 
        Dipole               -0.3844 Ry au,         -0.9771 Debye
        Dipole field         -0.0007 Ry au, 
 
        Potential amp.        0.0672 Ry
        Total length         46.3494 bohr
 

     total cpu time spent up to now is      747.8 secs

     total energy              =   -3288.80857815 Ry
     estimated scf accuracy    <       0.70105134 Ry

     total magnetization       =     0.88 Bohr mag/cell
     absolute magnetization    =     0.92 Bohr mag/cell

     iteration # 29     ecut=    36.75 Ry     beta= 0.05
     Davidson diagonalization with overlap
     c_bands:  1 eigenvalues not converged
     c_bands:  2 eigenvalues not converged
     c_bands:  1 eigenvalues not converged
     ethr =  1.79E-04,  avg # of iterations = 14.9

     negative rho (up, down):  1.074E-02 1.068E-02
 
     Adding external electric field

     Computed dipole along edir(3) : 
        Dipole               -0.8930 Ry au,         -2.2697 Debye
        Dipole field         -0.0017 Ry au, 
 
        Potential amp.        0.1562 Ry
        Total length         46.3494 bohr
 
 
     Adding external electric field

     Computed dipole along edir(3) : 
        Dipole               -0.8930 Ry au,         -2.2697 Debye
        Dipole field         -0.0017 Ry au, 
 
        Potential amp.        0.1562 Ry
        Total length         46.3494 bohr
 

     total cpu time spent up to now is      782.5 secs

     total energy              =   -3288.25309328 Ry
     estimated scf accuracy    <      10.84694302 Ry

     total magnetization       =     0.36 Bohr mag/cell
     absolute magnetization    =     0.79 Bohr mag/cell

     iteration # 30     ecut=    36.75 Ry     beta= 0.05
     Davidson diagonalization with overlap
     ethr =  1.79E-04,  avg # of iterations = 10.6

     negative rho (up, down):  1.083E-02 1.075E-02
 
     Adding external electric field

     Computed dipole along edir(3) : 
        Dipole               -1.4959 Ry au,         -3.8021 Debye
        Dipole field         -0.0028 Ry au, 
 
        Potential amp.        0.2617 Ry
        Total length         46.3494 bohr
 
 
     Adding external electric field

     Computed dipole along edir(3) : 
        Dipole               -1.4959 Ry au,         -3.8021 Debye
        Dipole field         -0.0028 Ry au, 
 
        Potential amp.        0.2617 Ry
        Total length         46.3494 bohr
 

     total cpu time spent up to now is      812.1 secs

     total energy              =   -3288.78811940 Ry
     estimated scf accuracy    <       0.70206565 Ry

     total magnetization       =     0.75 Bohr mag/cell
     absolute magnetization    =     0.80 Bohr mag/cell

     iteration # 31     ecut=    36.75 Ry     beta= 0.05
     Davidson diagonalization with overlap
     ethr =  1.79E-04,  avg # of iterations = 12.1

     negative rho (up, down):  1.079E-02 1.071E-02
 
     Adding external electric field

     Computed dipole along edir(3) : 
        Dipole               -1.3546 Ry au,         -3.4431 Debye
        Dipole field         -0.0026 Ry au, 
 
        Potential amp.        0.2370 Ry
        Total length         46.3494 bohr
 
 
     Adding external electric field

     Computed dipole along edir(3) : 
        Dipole               -1.3546 Ry au,         -3.4431 Debye
        Dipole field         -0.0026 Ry au, 
 
        Potential amp.        0.2370 Ry
        Total length         46.3494 bohr
 

     total cpu time spent up to now is      859.2 secs

     total energy              =   -3288.87775723 Ry
     estimated scf accuracy    <       1.37568924 Ry

     total magnetization       =     0.50 Bohr mag/cell
     absolute magnetization    =     0.58 Bohr mag/cell

     iteration # 32     ecut=    36.75 Ry     beta= 0.05
     Davidson diagonalization with overlap
     ethr =  1.79E-04,  avg # of iterations =  1.2

     negative rho (up, down):  1.075E-02 1.074E-02
 
     Adding external electric field

     Computed dipole along edir(3) : 
        Dipole               -0.2937 Ry au,         -0.7466 Debye
        Dipole field         -0.0006 Ry au, 
 
        Potential amp.        0.0514 Ry
        Total length         46.3494 bohr
 
 
     Adding external electric field

     Computed dipole along edir(3) : 
        Dipole               -0.2937 Ry au,         -0.7466 Debye
        Dipole field         -0.0006 Ry au, 
 
        Potential amp.        0.0514 Ry
        Total length         46.3494 bohr
 

     total cpu time spent up to now is      877.3 secs

     total energy              =   -3288.53912458 Ry
     estimated scf accuracy    <       1.28518137 Ry

     total magnetization       =     0.50 Bohr mag/cell
     absolute magnetization    =     0.57 Bohr mag/cell

     iteration # 33     ecut=    36.75 Ry     beta= 0.05
     Davidson diagonalization with overlap
     c_bands:  2 eigenvalues not converged
     c_bands:  1 eigenvalues not converged
     c_bands:  2 eigenvalues not converged
     c_bands:  3 eigenvalues not converged
     c_bands:  2 eigenvalues not converged
     c_bands:  2 eigenvalues not converged
     c_bands:  2 eigenvalues not converged
     ethr =  1.79E-04,  avg # of iterations = 16.6

     negative rho (up, down):  1.064E-02 1.076E-02
 
     Adding external electric field

     Computed dipole along edir(3) : 
        Dipole                0.2317 Ry au,          0.5888 Debye
        Dipole field          0.0004 Ry au, 
 
        Potential amp.       -0.0405 Ry
        Total length         46.3494 bohr
 
 
     Adding external electric field

     Computed dipole along edir(3) : 
        Dipole                0.2317 Ry au,          0.5888 Debye
        Dipole field          0.0004 Ry au, 
 
        Potential amp.       -0.0405 Ry
        Total length         46.3494 bohr
 

     total cpu time spent up to now is      934.5 secs

     total energy              =   -3288.89790304 Ry
     estimated scf accuracy    <       1.10689611 Ry

     total magnetization       =     1.05 Bohr mag/cell
     absolute magnetization    =     1.18 Bohr mag/cell

     iteration # 34     ecut=    36.75 Ry     beta= 0.05
     Davidson diagonalization with overlap
     c_bands:  1 eigenvalues not converged
     c_bands:  3 eigenvalues not converged
     c_bands:  2 eigenvalues not converged
     c_bands:  3 eigenvalues not converged
     c_bands:  1 eigenvalues not converged
     c_bands:  3 eigenvalues not converged
     c_bands:  2 eigenvalues not converged
     c_bands:  1 eigenvalues not converged
     ethr =  1.79E-04,  avg # of iterations = 18.3

     negative rho (up, down):  1.060E-02 1.071E-02
 
     Adding external electric field

     Computed dipole along edir(3) : 
        Dipole                0.2321 Ry au,          0.5898 Debye
        Dipole field          0.0004 Ry au, 
 
        Potential amp.       -0.0406 Ry
        Total length         46.3494 bohr
 
 
     Adding external electric field

     Computed dipole along edir(3) : 
        Dipole                0.2321 Ry au,          0.5898 Debye
        Dipole field          0.0004 Ry au, 
 
        Potential amp.       -0.0406 Ry
        Total length         46.3494 bohr
 

     total cpu time spent up to now is      986.4 secs

     total energy              =   -3289.31506544 Ry
     estimated scf accuracy    <     105.00103879 Ry

     total magnetization       =     0.33 Bohr mag/cell
     absolute magnetization    =     0.64 Bohr mag/cell

     iteration # 35     ecut=    36.75 Ry     beta= 0.05
     Davidson diagonalization with overlap
     ethr =  1.79E-04,  avg # of iterations =  1.4

     negative rho (up, down):  1.063E-02 1.074E-02
 
     Adding external electric field

     Computed dipole along edir(3) : 
        Dipole                0.1324 Ry au,          0.3365 Debye
        Dipole field          0.0002 Ry au, 
 
        Potential amp.       -0.0232 Ry
        Total length         46.3494 bohr
 
 
     Adding external electric field

     Computed dipole along edir(3) : 
        Dipole                0.1324 Ry au,          0.3365 Debye
        Dipole field          0.0002 Ry au, 
 
        Potential amp.       -0.0232 Ry
        Total length         46.3494 bohr
 

     total cpu time spent up to now is     1006.3 secs

     total energy              =   -3289.12795826 Ry
     estimated scf accuracy    <      83.89139018 Ry

     total magnetization       =     0.39 Bohr mag/cell
     absolute magnetization    =     0.68 Bohr mag/cell

     iteration # 36     ecut=    36.75 Ry     beta= 0.05
     Davidson diagonalization with overlap
     ethr =  1.79E-04,  avg # of iterations =  1.9

     negative rho (up, down):  1.066E-02 1.076E-02
 
     Adding external electric field

     Computed dipole along edir(3) : 
        Dipole                0.1082 Ry au,          0.2750 Debye
        Dipole field          0.0002 Ry au, 
 
        Potential amp.       -0.0189 Ry
        Total length         46.3494 bohr
 
 
     Adding external electric field

     Computed dipole along edir(3) : 
        Dipole                0.1082 Ry au,          0.2750 Debye
        Dipole field          0.0002 Ry au, 
 
        Potential amp.       -0.0189 Ry
        Total length         46.3494 bohr
 

     total cpu time spent up to now is     1026.3 secs

     total energy              =   -3289.12171791 Ry
     estimated scf accuracy    <      55.75805750 Ry

     total magnetization       =     0.29 Bohr mag/cell
     absolute magnetization    =     0.75 Bohr mag/cell

     iteration # 37     ecut=    36.75 Ry     beta= 0.05
     Davidson diagonalization with overlap
     ethr =  1.79E-04,  avg # of iterations =  1.1

     negative rho (up, down):  1.072E-02 1.074E-02
 
     Adding external electric field

     Computed dipole along edir(3) : 
        Dipole               -0.5447 Ry au,         -1.3845 Debye
        Dipole field         -0.0010 Ry au, 
 
        Potential amp.        0.0953 Ry
        Total length         46.3494 bohr
 
 
     Adding external electric field

     Computed dipole along edir(3) : 
        Dipole               -0.5447 Ry au,         -1.3845 Debye
        Dipole field         -0.0010 Ry au, 
 
        Potential amp.        0.0953 Ry
        Total length         46.3494 bohr
 

     total cpu time spent up to now is     1043.5 secs

     total energy              =   -3287.48267444 Ry
     estimated scf accuracy    <      53.53206046 Ry

     total magnetization       =     0.38 Bohr mag/cell
     absolute magnetization    =     0.75 Bohr mag/cell

     iteration # 38     ecut=    36.75 Ry     beta= 0.05
     Davidson diagonalization with overlap
     ethr =  1.79E-04,  avg # of iterations = 12.1

     negative rho (up, down):  1.078E-02 1.087E-02
 
     Adding external electric field

     Computed dipole along edir(3) : 
        Dipole               -0.8319 Ry au,         -2.1144 Debye
        Dipole field         -0.0016 Ry au, 
 
        Potential amp.        0.1455 Ry
        Total length         46.3494 bohr
 
 
     Adding external electric field

     Computed dipole along edir(3) : 
        Dipole               -0.8319 Ry au,         -2.1144 Debye
        Dipole field         -0.0016 Ry au, 
 
        Potential amp.        0.1455 Ry
        Total length         46.3494 bohr
 

     total cpu time spent up to now is     1081.6 secs

     total energy              =   -3288.65780114 Ry
     estimated scf accuracy    <       0.46471032 Ry

     total magnetization       =     1.12 Bohr mag/cell
     absolute magnetization    =     1.16 Bohr mag/cell

     iteration # 39     ecut=    36.75 Ry     beta= 0.05
     Davidson diagonalization with overlap
     c_bands:  2 eigenvalues not converged
     c_bands:  2 eigenvalues not converged
     c_bands:  1 eigenvalues not converged
     c_bands:  2 eigenvalues not converged
     c_bands:  2 eigenvalues not converged
     ethr =  1.19E-04,  avg # of iterations = 16.7

     negative rho (up, down):  1.062E-02 1.072E-02
 
     Adding external electric field

     Computed dipole along edir(3) : 
        Dipole               -0.2833 Ry au,         -0.7201 Debye
        Dipole field         -0.0005 Ry au, 
 
        Potential amp.        0.0496 Ry
        Total length         46.3494 bohr
 
 
     Adding external electric field

     Computed dipole along edir(3) : 
        Dipole               -0.2833 Ry au,         -0.7201 Debye
        Dipole field         -0.0005 Ry au, 
 
        Potential amp.        0.0496 Ry
        Total length         46.3494 bohr
 

     total cpu time spent up to now is     1130.2 secs

     total energy              =   -3288.65604992 Ry
     estimated scf accuracy    <       0.71256824 Ry

     total magnetization       =     1.36 Bohr mag/cell
     absolute magnetization    =     1.73 Bohr mag/cell

     iteration # 40     ecut=    36.75 Ry     beta= 0.05
     Davidson diagonalization with overlap
     ethr =  1.19E-04,  avg # of iterations =  5.5

     negative rho (up, down):  1.061E-02 1.072E-02
 
     Adding external electric field

     Computed dipole along edir(3) : 
        Dipole               -0.4855 Ry au,         -1.2340 Debye
        Dipole field         -0.0009 Ry au, 
 
        Potential amp.        0.0849 Ry
        Total length         46.3494 bohr
 
 
     Adding external electric field

     Computed dipole along edir(3) : 
        Dipole               -0.4855 Ry au,         -1.2340 Debye
        Dipole field         -0.0009 Ry au, 
 
        Potential amp.        0.0849 Ry
        Total length         46.3494 bohr
 

     total cpu time spent up to now is     1157.2 secs

     total energy              =   -3288.70326726 Ry
     estimated scf accuracy    <       0.39285857 Ry

     total magnetization       =     1.81 Bohr mag/cell
     absolute magnetization    =     1.86 Bohr mag/cell

     iteration # 41     ecut=    36.75 Ry     beta= 0.05
     Davidson diagonalization with overlap
     ethr =  1.00E-04,  avg # of iterations =  5.0

     negative rho (up, down):  1.055E-02 1.070E-02
 
     Adding external electric field

     Computed dipole along edir(3) : 
        Dipole               -0.4369 Ry au,         -1.1104 Debye
        Dipole field         -0.0008 Ry au, 
 
        Potential amp.        0.0764 Ry
        Total length         46.3494 bohr
 
 
     Adding external electric field

     Computed dipole along edir(3) : 
        Dipole               -0.4369 Ry au,         -1.1104 Debye
        Dipole field         -0.0008 Ry au, 
 
        Potential amp.        0.0764 Ry
        Total length         46.3494 bohr
 

     total cpu time spent up to now is     1177.8 secs

     total energy              =   -3288.70133379 Ry
     estimated scf accuracy    <       0.12234732 Ry

     total magnetization       =     1.46 Bohr mag/cell
     absolute magnetization    =     1.56 Bohr mag/cell

     iteration # 42     ecut=    36.75 Ry     beta= 0.05
     Davidson diagonalization with overlap
     c_bands:  1 eigenvalues not converged
     c_bands:  1 eigenvalues not converged
     ethr =  3.13E-05,  avg # of iterations =  9.5

     negative rho (up, down):  1.045E-02 1.061E-02
 
     Adding external electric field

     Computed dipole along edir(3) : 
        Dipole               -0.2758 Ry au,         -0.7010 Debye
        Dipole field         -0.0005 Ry au, 
 
        Potential amp.        0.0482 Ry
        Total length         46.3494 bohr
 
 
     Adding external electric field

     Computed dipole along edir(3) : 
        Dipole               -0.2758 Ry au,         -0.7010 Debye
        Dipole field         -0.0005 Ry au, 
 
        Potential amp.        0.0482 Ry
        Total length         46.3494 bohr
 

     total cpu time spent up to now is     1201.7 secs

     total energy              =   -3288.70896465 Ry
     estimated scf accuracy    <       0.17828426 Ry

     total magnetization       =     1.81 Bohr mag/cell
     absolute magnetization    =     1.97 Bohr mag/cell

     iteration # 43     ecut=    36.75 Ry     beta= 0.05
     Davidson diagonalization with overlap
     ethr =  3.13E-05,  avg # of iterations =  3.6

     negative rho (up, down):  1.033E-02 1.051E-02
 
     Adding external electric field

     Computed dipole along edir(3) : 
        Dipole               -0.0885 Ry au,         -0.2249 Debye
        Dipole field         -0.0002 Ry au, 
 
        Potential amp.        0.0155 Ry
        Total length         46.3494 bohr
 
 
     Adding external electric field

     Computed dipole along edir(3) : 
        Dipole               -0.0885 Ry au,         -0.2249 Debye
        Dipole field         -0.0002 Ry au, 
 
        Potential amp.        0.0155 Ry
        Total length         46.3494 bohr
 

     total cpu time spent up to now is     1235.4 secs

     total energy              =   -3288.72161838 Ry
     estimated scf accuracy    <       0.31775550 Ry

     total magnetization       =     1.86 Bohr mag/cell
     absolute magnetization    =     1.92 Bohr mag/cell

     iteration # 44     ecut=    36.75 Ry     beta= 0.05
     Davidson diagonalization with overlap
     c_bands:  1 eigenvalues not converged
     ethr =  3.13E-05,  avg # of iterations =  8.1

     negative rho (up, down):  1.033E-02 1.050E-02
 
     Adding external electric field

     Computed dipole along edir(3) : 
        Dipole               -0.2034 Ry au,         -0.5170 Debye
        Dipole field         -0.0004 Ry au, 
 
        Potential amp.        0.0356 Ry
        Total length         46.3494 bohr
 
 
     Adding external electric field

     Computed dipole along edir(3) : 
        Dipole               -0.2034 Ry au,         -0.5170 Debye
        Dipole field         -0.0004 Ry au, 
 
        Potential amp.        0.0356 Ry
        Total length         46.3494 bohr
 

     total cpu time spent up to now is     1262.7 secs

     total energy              =   -3288.71847051 Ry
     estimated scf accuracy    <       0.47645214 Ry

     total magnetization       =     1.95 Bohr mag/cell
     absolute magnetization    =     2.04 Bohr mag/cell

     iteration # 45     ecut=    36.75 Ry     beta= 0.05
     Davidson diagonalization with overlap
     ethr =  3.13E-05,  avg # of iterations =  3.5

     negative rho (up, down):  1.032E-02 1.051E-02
 
     Adding external electric field

     Computed dipole along edir(3) : 
        Dipole               -0.2317 Ry au,         -0.5889 Debye
        Dipole field         -0.0004 Ry au, 
 
        Potential amp.        0.0405 Ry
        Total length         46.3494 bohr
 
 
     Adding external electric field

     Computed dipole along edir(3) : 
        Dipole               -0.2317 Ry au,         -0.5889 Debye
        Dipole field         -0.0004 Ry au, 
 
        Potential amp.        0.0405 Ry
        Total length         46.3494 bohr
 

     total cpu time spent up to now is     1300.9 secs

     total energy              =   -3288.72272456 Ry
     estimated scf accuracy    <       0.33422724 Ry

     total magnetization       =     1.92 Bohr mag/cell
     absolute magnetization    =     1.99 Bohr mag/cell

     iteration # 46     ecut=    36.75 Ry     beta= 0.05
     Davidson diagonalization with overlap
     ethr =  3.13E-05,  avg # of iterations =  5.2

     negative rho (up, down):  1.024E-02 1.042E-02
 
     Adding external electric field

     Computed dipole along edir(3) : 
        Dipole               -0.1770 Ry au,         -0.4500 Debye
        Dipole field         -0.0003 Ry au, 
 
        Potential amp.        0.0310 Ry
        Total length         46.3494 bohr
 
 
     Adding external electric field

     Computed dipole along edir(3) : 
        Dipole               -0.1770 Ry au,         -0.4500 Debye
        Dipole field         -0.0003 Ry au, 
 
        Potential amp.        0.0310 Ry
        Total length         46.3494 bohr
 

     total cpu time spent up to now is     1321.7 secs

     total energy              =   -3288.71901840 Ry
     estimated scf accuracy    <       0.42928130 Ry

     total magnetization       =     1.99 Bohr mag/cell
     absolute magnetization    =     2.05 Bohr mag/cell

     iteration # 47     ecut=    36.75 Ry     beta= 0.05
     Davidson diagonalization with overlap
     ethr =  3.13E-05,  avg # of iterations =  4.8

     negative rho (up, down):  1.024E-02 1.040E-02
 
     Adding external electric field

     Computed dipole along edir(3) : 
        Dipole               -0.1617 Ry au,         -0.4111 Debye
        Dipole field         -0.0003 Ry au, 
 
        Potential amp.        0.0283 Ry
        Total length         46.3494 bohr
 
 
     Adding external electric field

     Computed dipole along edir(3) : 
        Dipole               -0.1617 Ry au,         -0.4111 Debye
        Dipole field         -0.0003 Ry au, 
 
        Potential amp.        0.0283 Ry
        Total length         46.3494 bohr
 

     total cpu time spent up to now is     1348.9 secs

     total energy              =   -3288.72254866 Ry
     estimated scf accuracy    <       0.11571396 Ry

     total magnetization       =     1.82 Bohr mag/cell
     absolute magnetization    =     2.00 Bohr mag/cell

     iteration # 48     ecut=    36.75 Ry     beta= 0.05
     Davidson diagonalization with overlap
     ethr =  2.96E-05,  avg # of iterations =  1.1

     negative rho (up, down):  1.022E-02 1.036E-02
 
     Adding external electric field

     Computed dipole along edir(3) : 
        Dipole               -0.0703 Ry au,         -0.1786 Debye
        Dipole field         -0.0001 Ry au, 
 
        Potential amp.        0.0123 Ry
        Total length         46.3494 bohr
 
 
     Adding external electric field

     Computed dipole along edir(3) : 
        Dipole               -0.0703 Ry au,         -0.1786 Debye
        Dipole field         -0.0001 Ry au, 
 
        Potential amp.        0.0123 Ry
        Total length         46.3494 bohr
 

     total cpu time spent up to now is     1365.9 secs

     total energy              =   -3288.72087156 Ry
     estimated scf accuracy    <       0.16961916 Ry

     total magnetization       =     1.75 Bohr mag/cell
     absolute magnetization    =     1.87 Bohr mag/cell

     iteration # 49     ecut=    36.75 Ry     beta= 0.05
     Davidson diagonalization with overlap
     ethr =  2.96E-05,  avg # of iterations =  4.7

     negative rho (up, down):  1.020E-02 1.032E-02
 
     Adding external electric field

     Computed dipole along edir(3) : 
        Dipole                0.0007 Ry au,          0.0017 Debye
        Dipole field          0.0000 Ry au, 
 
        Potential amp.       -0.0001 Ry
        Total length         46.3494 bohr
 
 
     Adding external electric field

     Computed dipole along edir(3) : 
        Dipole                0.0007 Ry au,          0.0017 Debye
        Dipole field          0.0000 Ry au, 
 
        Potential amp.       -0.0001 Ry
        Total length         46.3494 bohr
 

     total cpu time spent up to now is     1385.8 secs

     total energy              =   -3288.72263614 Ry
     estimated scf accuracy    <       0.04648233 Ry

     total magnetization       =     1.66 Bohr mag/cell
     absolute magnetization    =     1.96 Bohr mag/cell

     iteration # 50     ecut=    36.75 Ry     beta= 0.05
     Davidson diagonalization with overlap
     c_bands:  2 eigenvalues not converged
     c_bands:  1 eigenvalues not converged
     c_bands:  2 eigenvalues not converged
     c_bands:  1 eigenvalues not converged
     ethr =  1.19E-05,  avg # of iterations = 11.7

     negative rho (up, down):  1.024E-02 1.036E-02
 
     Adding external electric field

     Computed dipole along edir(3) : 
        Dipole                0.0751 Ry au,          0.1910 Debye
        Dipole field          0.0001 Ry au, 
 
        Potential amp.       -0.0131 Ry
        Total length         46.3494 bohr
 
 
     Adding external electric field

     Computed dipole along edir(3) : 
        Dipole                0.0751 Ry au,          0.1910 Debye
        Dipole field          0.0001 Ry au, 
 
        Potential amp.       -0.0131 Ry
        Total length         46.3494 bohr
 

     total cpu time spent up to now is     1411.3 secs

     total energy              =   -3288.72720441 Ry
     estimated scf accuracy    <       0.01800798 Ry

     total magnetization       =     1.72 Bohr mag/cell
     absolute magnetization    =     2.01 Bohr mag/cell

     iteration # 51     ecut=    36.75 Ry     beta= 0.05
     Davidson diagonalization with overlap
     c_bands:  2 eigenvalues not converged
     c_bands:  1 eigenvalues not converged
     c_bands:  2 eigenvalues not converged
     c_bands:  1 eigenvalues not converged
     c_bands:  1 eigenvalues not converged
     c_bands:  1 eigenvalues not converged
     c_bands:  1 eigenvalues not converged
     c_bands:  1 eigenvalues not converged
     ethr =  4.61E-06,  avg # of iterations = 13.8

     negative rho (up, down):  1.023E-02 1.033E-02
 
     Adding external electric field

     Computed dipole along edir(3) : 
        Dipole                0.0835 Ry au,          0.2123 Debye
        Dipole field          0.0002 Ry au, 
 
        Potential amp.       -0.0146 Ry
        Total length         46.3494 bohr
 
 
     Adding external electric field

     Computed dipole along edir(3) : 
        Dipole                0.0835 Ry au,          0.2123 Debye
        Dipole field          0.0002 Ry au, 
 
        Potential amp.       -0.0146 Ry
        Total length         46.3494 bohr
 

     total cpu time spent up to now is     1438.4 secs

     total energy              =   -3288.72781361 Ry
     estimated scf accuracy    <       0.01479080 Ry

     total magnetization       =     1.64 Bohr mag/cell
     absolute magnetization    =     2.10 Bohr mag/cell

     iteration # 52     ecut=    36.75 Ry     beta= 0.05
     Davidson diagonalization with overlap
     c_bands:  1 eigenvalues not converged
     ethr =  3.78E-06,  avg # of iterations =  9.2

     negative rho (up, down):  1.040E-02 1.050E-02
 
     Adding external electric field

     Computed dipole along edir(3) : 
        Dipole                0.1263 Ry au,          0.3211 Debye
        Dipole field          0.0002 Ry au, 
 
        Potential amp.       -0.0221 Ry
        Total length         46.3494 bohr
 
 
     Adding external electric field

     Computed dipole along edir(3) : 
        Dipole                0.1263 Ry au,          0.3211 Debye
        Dipole field          0.0002 Ry au, 
 
        Potential amp.       -0.0221 Ry
        Total length         46.3494 bohr
 

     total cpu time spent up to now is     1463.4 secs

     total energy              =   -3288.72855045 Ry
     estimated scf accuracy    <       0.01328456 Ry

     total magnetization       =     1.68 Bohr mag/cell
     absolute magnetization    =     2.10 Bohr mag/cell

     iteration # 53     ecut=    36.75 Ry     beta= 0.05
     Davidson diagonalization with overlap
     ethr =  3.40E-06,  avg # of iterations =  4.8

     negative rho (up, down):  1.028E-02 1.036E-02
 
     Adding external electric field

     Computed dipole along edir(3) : 
        Dipole                0.1097 Ry au,          0.2789 Debye
        Dipole field          0.0002 Ry au, 
 
        Potential amp.       -0.0192 Ry
        Total length         46.3494 bohr
 
 
     Adding external electric field

     Computed dipole along edir(3) : 
        Dipole                0.1097 Ry au,          0.2789 Debye
        Dipole field          0.0002 Ry au, 
 
        Potential amp.       -0.0192 Ry
        Total length         46.3494 bohr
 

     total cpu time spent up to now is     1483.9 secs

     total energy              =   -3288.72896807 Ry
     estimated scf accuracy    <       0.00514290 Ry

     total magnetization       =     1.65 Bohr mag/cell
     absolute magnetization    =     2.11 Bohr mag/cell

     iteration # 54     ecut=    36.75 Ry     beta= 0.05
     Davidson diagonalization with overlap
     c_bands:  1 eigenvalues not converged
     c_bands:  1 eigenvalues not converged
     c_bands:  1 eigenvalues not converged
     ethr =  1.32E-06,  avg # of iterations = 12.9

     negative rho (up, down):  1.024E-02 1.031E-02
 
     Adding external electric field

     Computed dipole along edir(3) : 
        Dipole                0.1146 Ry au,          0.2913 Debye
        Dipole field          0.0002 Ry au, 
 
        Potential amp.       -0.0200 Ry
        Total length         46.3494 bohr
 
 
     Adding external electric field

     Computed dipole along edir(3) : 
        Dipole                0.1146 Ry au,          0.2913 Debye
        Dipole field          0.0002 Ry au, 
 
        Potential amp.       -0.0200 Ry
        Total length         46.3494 bohr
 

     total cpu time spent up to now is     1658.4 secs

     total energy              =   -3288.72917931 Ry
     estimated scf accuracy    <       0.00406045 Ry

     total magnetization       =     1.70 Bohr mag/cell
     absolute magnetization    =     2.21 Bohr mag/cell

     iteration # 55     ecut=    36.75 Ry     beta= 0.05
     Davidson diagonalization with overlap
     ethr =  1.04E-06,  avg # of iterations =  5.7

     negative rho (up, down):  1.020E-02 1.026E-02
 
     Adding external electric field

     Computed dipole along edir(3) : 
        Dipole                0.1027 Ry au,          0.2611 Debye
        Dipole field          0.0002 Ry au, 
 
        Potential amp.       -0.0180 Ry
        Total length         46.3494 bohr
 
 
     Adding external electric field

     Computed dipole along edir(3) : 
        Dipole                0.1027 Ry au,          0.2611 Debye
        Dipole field          0.0002 Ry au, 
 
        Potential amp.       -0.0180 Ry
        Total length         46.3494 bohr
 

     total cpu time spent up to now is     1679.7 secs

     total energy              =   -3288.72893713 Ry
     estimated scf accuracy    <       0.00633512 Ry

     total magnetization       =     1.67 Bohr mag/cell
     absolute magnetization    =     2.20 Bohr mag/cell

     iteration # 56     ecut=    36.75 Ry     beta= 0.05
     Davidson diagonalization with overlap
     ethr =  1.04E-06,  avg # of iterations =  6.2

     negative rho (up, down):  1.022E-02 1.026E-02
 
     Adding external electric field

     Computed dipole along edir(3) : 
        Dipole                0.1008 Ry au,          0.2562 Debye
        Dipole field          0.0002 Ry au, 
 
        Potential amp.       -0.0176 Ry
        Total length         46.3494 bohr
 
 
     Adding external electric field

     Computed dipole along edir(3) : 
        Dipole                0.1008 Ry au,          0.2562 Debye
        Dipole field          0.0002 Ry au, 
 
        Potential amp.       -0.0176 Ry
        Total length         46.3494 bohr
 

     total cpu time spent up to now is     1702.3 secs

     total energy              =   -3288.72985821 Ry
     estimated scf accuracy    <       0.00239129 Ry

     total magnetization       =     1.69 Bohr mag/cell
     absolute magnetization    =     2.17 Bohr mag/cell

     iteration # 57     ecut=    36.75 Ry     beta= 0.05
     Davidson diagonalization with overlap
     ethr =  6.12E-07,  avg # of iterations =  5.1

     negative rho (up, down):  1.046E-02 1.045E-02
 
     Adding external electric field

     Computed dipole along edir(3) : 
        Dipole                0.1019 Ry au,          0.2589 Debye
        Dipole field          0.0002 Ry au, 
 
        Potential amp.       -0.0178 Ry
        Total length         46.3494 bohr
 
 
     Adding external electric field

     Computed dipole along edir(3) : 
        Dipole                0.1019 Ry au,          0.2589 Debye
        Dipole field          0.0002 Ry au, 
 
        Potential amp.       -0.0178 Ry
        Total length         46.3494 bohr
 

     total cpu time spent up to now is     1724.2 secs

     total energy              =   -3288.73149870 Ry
     estimated scf accuracy    <       0.00205913 Ry

     total magnetization       =     1.67 Bohr mag/cell
     absolute magnetization    =     2.22 Bohr mag/cell

     iteration # 58     ecut=    36.75 Ry     beta= 0.05
     Davidson diagonalization with overlap
     ethr =  5.27E-07,  avg # of iterations =  8.4

     negative rho (up, down):  1.038E-02 1.036E-02
 
     Adding external electric field

     Computed dipole along edir(3) : 
        Dipole                0.1056 Ry au,          0.2685 Debye
        Dipole field          0.0002 Ry au, 
 
        Potential amp.       -0.0185 Ry
        Total length         46.3494 bohr
 
 
     Adding external electric field

     Computed dipole along edir(3) : 
        Dipole                0.1056 Ry au,          0.2685 Debye
        Dipole field          0.0002 Ry au, 
 
        Potential amp.       -0.0185 Ry
        Total length         46.3494 bohr
 

     total cpu time spent up to now is     1756.3 secs

     total energy              =   -3288.73186758 Ry
     estimated scf accuracy    <       0.00193166 Ry

     total magnetization       =     1.64 Bohr mag/cell
     absolute magnetization    =     2.31 Bohr mag/cell

     iteration # 59     ecut=    36.75 Ry     beta= 0.05
     Davidson diagonalization with overlap
     ethr =  4.94E-07,  avg # of iterations =  5.3

     negative rho (up, down):  1.042E-02 1.038E-02
 
     Adding external electric field

     Computed dipole along edir(3) : 
        Dipole                0.1081 Ry au,          0.2748 Debye
        Dipole field          0.0002 Ry au, 
 
        Potential amp.       -0.0189 Ry
        Total length         46.3494 bohr
 
 
     Adding external electric field

     Computed dipole along edir(3) : 
        Dipole                0.1081 Ry au,          0.2748 Debye
        Dipole field          0.0002 Ry au, 
 
        Potential amp.       -0.0189 Ry
        Total length         46.3494 bohr
 

     total cpu time spent up to now is     1777.4 secs

     total energy              =   -3288.73222672 Ry
     estimated scf accuracy    <       0.00091485 Ry

     total magnetization       =     1.65 Bohr mag/cell
     absolute magnetization    =     2.31 Bohr mag/cell

     iteration # 60     ecut=    36.75 Ry     beta= 0.05
     Davidson diagonalization with overlap
     ethr =  2.34E-07,  avg # of iterations =  4.2

     negative rho (up, down):  1.060E-02 1.049E-02
 
     Adding external electric field

     Computed dipole along edir(3) : 
        Dipole                0.1196 Ry au,          0.3039 Debye
        Dipole field          0.0002 Ry au, 
 
        Potential amp.       -0.0209 Ry
        Total length         46.3494 bohr
 
 
     Adding external electric field

     Computed dipole along edir(3) : 
        Dipole                0.1196 Ry au,          0.3039 Debye
        Dipole field          0.0002 Ry au, 
 
        Potential amp.       -0.0209 Ry
        Total length         46.3494 bohr
 

     total cpu time spent up to now is     1797.8 secs

     total energy              =   -3288.73305363 Ry
     estimated scf accuracy    <       0.00100540 Ry

     total magnetization       =     1.63 Bohr mag/cell
     absolute magnetization    =     2.35 Bohr mag/cell

     iteration # 61     ecut=    36.75 Ry     beta= 0.05
     Davidson diagonalization with overlap
     c_bands:  1 eigenvalues not converged
     ethr =  2.34E-07,  avg # of iterations =  8.1

     negative rho (up, down):  1.069E-02 1.058E-02
 
     Adding external electric field

     Computed dipole along edir(3) : 
        Dipole                0.1196 Ry au,          0.3040 Debye
        Dipole field          0.0002 Ry au, 
 
        Potential amp.       -0.0209 Ry
        Total length         46.3494 bohr
 
 
     Adding external electric field

     Computed dipole along edir(3) : 
        Dipole                0.1196 Ry au,          0.3040 Debye
        Dipole field          0.0002 Ry au, 
 
        Potential amp.       -0.0209 Ry
        Total length         46.3494 bohr
 

     total cpu time spent up to now is     1826.3 secs

     total energy              =   -3288.73342701 Ry
     estimated scf accuracy    <       0.00048070 Ry

     total magnetization       =     1.58 Bohr mag/cell
     absolute magnetization    =     2.46 Bohr mag/cell

     iteration # 62     ecut=    36.75 Ry     beta= 0.05
[...]
    -1.6506  -1.5755  -1.5680  -1.5385  -1.5003  -1.4935  -1.4379  -1.4029
    -1.3917  -1.2407  -1.1043  -1.0566  -1.0276  -1.0108  -0.9883  -0.9545
    -0.9213  -0.8548  -0.7613  -0.6820  -0.6379  -0.6259  -0.5299  -0.4931
    -0.4714  -0.4579  -0.4419  -0.3934  -0.3487  -0.2967  -0.2615  -0.2332
    -0.1879  -0.1399  -0.1077  -0.0508   0.0319   0.0924   0.1095   0.1177
     0.2026   0.4559   0.5394   0.6371   0.7389   0.7974   0.8360   0.9799
     1.3193   1.4113   2.9384   3.0785   3.1380   3.1713   3.2189   3.2469
     3.3032   3.3453   3.3710   3.4148   3.4510

          k = 0.0380 0.0419 0.0000 ( 25075 PWs)   bands (ev):

   -56.2341 -56.2072 -56.2059 -56.1816 -56.1380 -56.0857 -56.0780 -56.0522
   -55.9890 -55.9640 -55.9616 -55.9371 -55.8852 -55.7773 -55.1960 -55.1718
   -32.6618 -32.5678 -32.4832 -32.4807 -32.4768 -32.4562 -32.4467 -32.4227
   -32.4021 -32.3843 -32.3579 -32.3549 -32.3502 -32.3432 -32.3354 -32.3134
   -32.3036 -32.3012 -32.2959 -32.2896 -32.2639 -32.2321 -32.2179 -32.2139
   -32.2031 -32.1815 -32.1797 -32.1764 -32.1638 -32.1594 -32.1422 -32.1251
   -32.1103 -32.0910 -32.0886 -32.0628 -32.0619 -32.0601 -32.0549 -31.9663
   -31.9523 -31.8822 -31.5004 -31.4633 -31.4436 -31.3646 -31.3032 -31.2318
   -19.5537 -16.8028 -16.4809 -16.3900 -16.3145 -16.2416 -16.1711 -16.1252
   -16.0547 -15.9683 -15.9141 -15.9053 -15.8731 -15.8601 -15.8500 -15.7936
   -15.7630 -15.7372 -15.6964 -15.6577 -15.5962 -15.5841 -15.5750 -15.5450
   -15.5086 -15.4715 -15.4347 -15.3765 -15.3133 -15.2683 -13.7692 -13.6894
   -10.3356  -4.0356  -3.7617  -3.7268  -3.6428  -3.5952  -3.5585  -3.5247
    -3.4937  -3.4745  -3.4680  -3.3676  -3.2470  -3.2079  -3.1967  -3.1716
    -3.1361  -3.0785  -3.0486  -3.0243  -3.0121  -2.9808  -2.9611  -2.9358
    -2.9198  -2.8910  -2.8745  -2.8090  -2.7636  -2.7355  -2.6679  -2.6266
    -2.6214  -2.5183  -2.4863  -2.4309  -2.3880  -2.3308  -2.3003  -2.1732
    -2.0977  -2.0796  -1.9705  -1.9208  -1.8428  -1.7682  -1.6540  -1.6395
    -1.6097  -1.5209  -1.4935  -1.4498  -1.4387  -1.4102  -1.3366  -1.2698
    -1.2397  -1.1864  -1.1816  -1.1307  -1.0668  -1.0240  -1.0034  -0.9880
    -0.9063  -0.8640  -0.8562  -0.8462  -0.7912  -0.7814  -0.7276  -0.7122
    -0.6436  -0.6291  -0.5479  -0.5089  -0.4604  -0.3752  -0.3369  -0.2857
    -0.2383  -0.1526  -0.1141  -0.0289   0.0312   0.0810   0.1327   0.1825
     0.2312   0.3400   0.4002   0.4183   0.6098   0.7602   1.0331   1.0960
     1.3019   1.3879   3.0414   3.1053   3.1825   3.2401   3.2641   3.2686
     3.3394   3.3637   3.4520   3.4578   3.4995

          k = 0.0380-0.0839 0.0000 ( 25070 PWs)   bands (ev):

   -56.2275 -56.2125 -56.1946 -56.1942 -56.1355 -56.0809 -56.0806 -56.0570
   -55.9792 -55.9739 -55.9523 -55.9465 -55.8840 -55.7786 -55.1839 -55.1839
   -32.5225 -32.5213 -32.4723 -32.4613 -32.4465 -32.4420 -32.4392 -32.4300
   -32.3791 -32.3749 -32.3530 -32.3484 -32.3419 -32.3278 -32.3211 -32.3169
   -32.3005 -32.2983 -32.2946 -32.2756 -32.2725 -32.2488 -32.2290 -32.2218
   -32.2171 -32.2150 -32.2101 -32.2078 -32.1960 -32.1537 -32.1504 -32.1417
   -32.1398 -32.1356 -32.1226 -32.0733 -32.0691 -32.0611 -32.0534 -31.9907
   -31.9662 -31.8972 -31.4534 -31.4533 -31.3681 -31.3680 -31.3340 -31.3339
   -19.5537 -16.4869 -16.4811 -16.2482 -16.2442 -16.1677 -16.1148 -16.0858
   -16.0482 -16.0280 -16.0144 -15.9294 -15.8910 -15.8078 -15.7827 -15.7669
   -15.7621 -15.7208 -15.6897 -15.6812 -15.6474 -15.6246 -15.6039 -15.5913
   -15.5691 -15.5007 -15.4966 -15.4526 -15.4333 -15.4017 -13.7527 -13.7505
   -10.3364  -3.6621  -3.6250  -3.5588  -3.4816  -3.4073  -3.3716  -3.3554
    -3.3471  -3.3382  -3.3042  -3.2805  -3.2100  -3.2054  -3.2045  -3.1891
    -3.1716  -3.1223  -3.1046  -3.0321  -3.0185  -3.0060  -2.9908  -2.9650
    -2.9375  -2.9286  -2.9230  -2.8947  -2.8413  -2.8108  -2.7892  -2.7282
    -2.6994  -2.6818  -2.3384  -2.3080  -2.2551  -2.2156  -2.1242  -2.0841
    -2.0724  -2.0408  -1.9982  -1.9560  -1.9463  -1.9133  -1.8866  -1.8737
    -1.7572  -1.7526  -1.6851  -1.6634  -1.4784  -1.4565  -1.4358  -1.3382
    -1.2044  -1.1867  -1.1167  -1.0992  -1.0572  -0.9894  -0.9175  -0.9055
    -0.8880  -0.8773  -0.8503  -0.8447  -0.8124  -0.7468  -0.7311  -0.7134
    -0.6797  -0.6514  -0.6352  -0.6070  -0.5483  -0.4712  -0.3469  -0.3436
    -0.2893  -0.2229  -0.1269  -0.0925  -0.0537   0.0143   0.0646   0.1315
     0.1674   0.2720   0.3374   0.5554   0.5587   0.6079   1.1711   1.1718
     1.3159   1.3185   3.0592   3.1187   3.2158   3.2451   3.2856   3.3007
     3.3209   3.3574   3.5340   3.5441   3.5781

          k = 0.0380-0.0419 0.0000 ( 25077 PWs)   bands (ev):

   -56.2341 -56.2072 -56.2059 -56.1816 -56.1380 -56.0857 -56.0780 -56.0522
   -55.9890 -55.9640 -55.9616 -55.9371 -55.8852 -55.7773 -55.1960 -55.1718
   -32.6618 -32.5678 -32.4831 -32.4808 -32.4768 -32.4562 -32.4467 -32.4227
   -32.4021 -32.3843 -32.3579 -32.3549 -32.3503 -32.3432 -32.3354 -32.3137
   -32.3033 -32.3012 -32.2959 -32.2896 -32.2639 -32.2322 -32.2178 -32.2142
   -32.2029 -32.1815 -32.1797 -32.1764 -32.1638 -32.1594 -32.1422 -32.1251
   -32.1104 -32.0910 -32.0886 -32.0626 -32.0618 -32.0601 -32.0550 -31.9666
   -31.9522 -31.8821 -31.5004 -31.4633 -31.4436 -31.3646 -31.3032 -31.2318
   -19.5537 -16.8028 -16.4808 -16.3900 -16.3143 -16.2416 -16.1709 -16.1252
   -16.0547 -15.9677 -15.9149 -15.9061 -15.8732 -15.8600 -15.8500 -15.7938
   -15.7627 -15.7371 -15.6962 -15.6578 -15.5962 -15.5841 -15.5750 -15.5450
   -15.5081 -15.4716 -15.4344 -15.3768 -15.3134 -15.2683 -13.7692 -13.6894
   -10.3356  -4.0357  -3.7614  -3.7270  -3.6425  -3.5945  -3.5582  -3.5244
    -3.4935  -3.4741  -3.4676  -3.3673  -3.2464  -3.2075  -3.1982  -3.1714
    -3.1374  -3.0788  -3.0483  -3.0209  -3.0131  -2.9819  -2.9611  -2.9371
    -2.9191  -2.8918  -2.8753  -2.8103  -2.7626  -2.7362  -2.6677  -2.6263
    -2.6217  -2.5182  -2.4857  -2.4235  -2.3872  -2.3399  -2.3021  -2.1724
    -2.0966  -2.0801  -1.9698  -1.9206  -1.8407  -1.7703  -1.6527  -1.6394
    -1.6097  -1.5221  -1.4927  -1.4475  -1.4397  -1.4110  -1.3384  -1.2706
    -1.2374  -1.1904  -1.1857  -1.1327  -1.0650  -1.0243  -1.0013  -0.9876
    -0.9089  -0.8684  -0.8588  -0.8416  -0.7922  -0.7813  -0.7265  -0.7104
    -0.6437  -0.6271  -0.5465  -0.5082  -0.4603  -0.3750  -0.3366  -0.2866
    -0.2360  -0.1541  -0.1124  -0.0312   0.0311   0.0813   0.1337   0.1825
     0.2311   0.3394   0.4001   0.4174   0.6143   0.7608   1.0332   1.0960
     1.3017   1.3886   3.0423   3.1012   3.1832   3.2346   3.2637   3.2754
     3.3357   3.3653   3.4527   3.4582   3.4998

          k =-0.0760-0.0000 0.0000 ( 25092 PWs)   bands (ev):

   -56.2385 -56.2124 -56.2015 -56.1763 -56.1403 -56.0894 -56.0756 -56.0485
   -55.9938 -55.9666 -55.9590 -55.9323 -55.8865 -55.7760 -55.2009 -55.1668
   -32.7196 -32.6225 -32.5374 -32.5130 -32.4939 -32.4820 -32.4593 -32.4199
   -32.4160 -32.3966 -32.3885 -32.3654 -32.3504 -32.3460 -32.3270 -32.3130
   -32.2998 -32.2834 -32.2764 -32.2690 -32.2642 -32.2444 -32.2114 -32.2012
   -32.1719 -32.1717 -32.1679 -32.1454 -32.1442 -32.1384 -32.1322 -32.1289
   -32.1011 -32.0935 -32.0674 -32.0597 -32.0553 -32.0456 -32.0118 -31.9664
   -31.9308 -31.8605 -31.5540 -31.4707 -31.4381 -31.3771 -31.2904 -31.1745
   -19.5538 -16.8388 -16.5342 -16.3935 -16.3217 -16.2771 -16.2435 -16.1310
   -16.0540 -16.0304 -16.0215 -15.9823 -15.9432 -15.9268 -15.8788 -15.8627
   -15.7983 -15.7266 -15.6887 -15.6019 -15.5889 -15.5843 -15.5050 -15.4936
   -15.4374 -15.4075 -15.3613 -15.2769 -15.2501 -15.1803 -13.7619 -13.6495
   -10.3346  -4.1911  -3.8303  -3.7671  -3.7050  -3.5914  -3.5633  -3.5495
    -3.5407  -3.5253  -3.4193  -3.3992  -3.3975  -3.3705  -3.3335  -3.3087
    -3.2235  -3.0612  -3.0128  -2.9835  -2.9741  -2.9394  -2.7597  -2.7357
    -2.7297  -2.6621  -2.6552  -2.6196  -2.5857  -2.5417  -2.5005  -2.4911
    -2.4266  -2.3873  -2.3770  -2.3695  -2.3568  -2.3452  -2.2329  -2.2169
    -2.1858  -2.0122  -1.9977  -1.9242  -1.8468  -1.8195  -1.8136  -1.7897
    -1.7292  -1.7239  -1.7158  -1.5959  -1.5700  -1.5266  -1.4512  -1.4335
    -1.4022  -1.3351  -1.2925  -1.2797  -1.0666  -1.0491  -0.9720  -0.9329
    -0.8945  -0.8808  -0.8499  -0.7640  -0.7543  -0.7140  -0.6950  -0.6607
    -0.5806  -0.4743  -0.4521  -0.4286  -0.4155  -0.3997  -0.3509  -0.3060
    -0.2868  -0.1547  -0.1122  -0.0548  -0.0235  -0.0164   0.1970   0.2543
     0.2987   0.3787   0.5206   0.5999   0.6788   0.7581   0.8599   0.9505
     1.1736   1.3413   2.9263   2.9402   3.1087   3.1606   3.2098   3.2573
     3.2636   3.3674   3.3846   3.3927   3.4557

          k =-0.0760 0.0419 0.0000 ( 25078 PWs)   bands (ev):

   -56.2341 -56.2071 -56.2059 -56.1816 -56.1380 -56.0857 -56.0780 -56.0522
   -55.9888 -55.9640 -55.9618 -55.9372 -55.8852 -55.7773 -55.1960 -55.1718
   -32.6620 -32.5688 -32.4846 -32.4814 -32.4768 -32.4628 -32.4467 -32.4227
   -32.4021 -32.3846 -32.3585 -32.3528 -32.3497 -32.3396 -32.3257 -32.3128
   -32.3015 -32.2993 -32.2893 -32.2861 -32.2639 -32.2514 -32.2179 -32.2112
   -32.2041 -32.1842 -32.1791 -32.1637 -32.1611 -32.1422 -32.1350 -32.1341
   -32.1223 -32.0971 -32.0889 -32.0681 -32.0645 -32.0615 -32.0567 -31.9675
   -31.9523 -31.8821 -31.5002 -31.4658 -31.4427 -31.3646 -31.3033 -31.2318
   -19.5537 -16.7194 -16.4211 -16.3028 -16.2393 -16.2158 -16.1603 -16.1234
   -16.0434 -16.0038 -15.9634 -15.9545 -15.9214 -15.8962 -15.8900 -15.8350
   -15.7815 -15.7086 -15.6968 -15.6961 -15.6382 -15.6213 -15.5845 -15.5399
   -15.5332 -15.4532 -15.4453 -15.3760 -15.3109 -15.2684 -13.7671 -13.6898
   -10.3355  -4.0215  -3.6662  -3.5550  -3.5063  -3.4987  -3.4932  -3.3961
    -3.3568  -3.3148  -3.2624  -3.2458  -3.2285  -3.2154  -3.1953  -3.1767
    -3.1193  -3.1099  -3.0842  -3.0019  -2.9867  -2.9103  -2.9041  -2.8684
    -2.8479  -2.8383  -2.7844  -2.7439  -2.7245  -2.6920  -2.6222  -2.6109
    -2.5804  -2.5365  -2.5007  -2.3646  -2.3092  -2.2911  -2.2306  -2.2137
    -2.1764  -2.0759  -1.9223  -1.8267  -1.8240  -1.8003  -1.7190  -1.7014
    -1.6420  -1.6324  -1.5884  -1.5409  -1.4963  -1.4877  -1.4493  -1.4045
    -1.3920  -1.3708  -1.3080  -1.2701  -1.2675  -1.2352  -1.1952  -1.1069
    -1.0410  -1.0126  -0.9836  -0.9631  -0.8751  -0.8685  -0.8372  -0.8156
    -0.6881  -0.6769  -0.5872  -0.5436  -0.5034  -0.4947  -0.3097  -0.2339
    -0.2122  -0.1931  -0.0900  -0.0237   0.0293   0.1437   0.2113   0.2574
     0.3100   0.3726   0.4125   0.4430   0.6127   0.6206   1.0501   1.0992
     1.2264   1.3697   2.9869   3.0620   3.1456   3.1832   3.2418   3.2786
     3.2888   3.2983   3.4339   3.4717   3.5422

          k =-0.0760-0.0839 0.0000 ( 25128 PWs)   bands (ev):

   -56.2275 -56.2125 -56.1946 -56.1942 -56.1355 -56.0809 -56.0806 -56.0571
   -55.9790 -55.9738 -55.9524 -55.9466 -55.8840 -55.7786 -55.1839 -55.1839
   -32.5228 -32.5215 -32.4723 -32.4613 -32.4465 -32.4427 -32.4393 -32.4307
   -32.3803 -32.3751 -32.3609 -32.3490 -32.3470 -32.3266 -32.3222 -32.3157
   -32.2966 -32.2833 -32.2823 -32.2733 -32.2677 -32.2477 -32.2299 -32.2257
   -32.2214 -32.2193 -32.2139 -32.2125 -32.2059 -32.1533 -32.1503 -32.1416
   -32.1237 -32.1048 -32.1027 -32.1017 -32.0955 -32.0625 -32.0548 -31.9904
   -31.9679 -31.8972 -31.4541 -31.4541 -31.3680 -31.3679 -31.3340 -31.3339
   -19.5537 -16.4425 -16.4150 -16.2145 -16.1801 -16.1717 -16.0781 -16.0177
   -15.9768 -15.9703 -15.9614 -15.9265 -15.9147 -15.8738 -15.8584 -15.7885
   -15.7771 -15.7643 -15.7389 -15.6991 -15.6855 -15.6837 -15.6329 -15.6204
   -15.5717 -15.5700 -15.5399 -15.4518 -15.4245 -15.3957 -13.7525 -13.7503
   -10.3364  -3.6624  -3.6258  -3.5553  -3.4814  -3.3579  -3.3198  -3.3099
    -3.2309  -3.1304  -3.1248  -3.1044  -3.0526  -3.0089  -2.9956  -2.9939
    -2.9810  -2.9724  -2.9661  -2.9421  -2.9288  -2.9206  -2.8771  -2.8382
    -2.8196  -2.7782  -2.7762  -2.7707  -2.7239  -2.7121  -2.6988  -2.6973
    -2.6932  -2.6763  -2.4326  -2.4284  -2.3454  -2.2857  -2.2839  -2.2610
    -2.2518  -2.2095  -2.1843  -2.1276  -2.0517  -1.9669  -1.8903  -1.8845
    -1.8821  -1.8320  -1.7719  -1.6208  -1.6057  -1.5665  -1.5143  -1.4748
    -1.4489  -1.3972  -1.3158  -1.2723  -1.2528  -1.1691  -1.1179  -1.1025
    -1.0892  -1.0718  -1.0278  -0.9502  -0.9079  -0.8703  -0.8129  -0.7503
    -0.7331  -0.7175  -0.7096  -0.6982  -0.6031  -0.5559  -0.2652  -0.2499
    -0.1827  -0.1514  -0.1067  -0.0261   0.0311   0.1320   0.1403   0.2834
     0.2985   0.3755   0.3791   0.4420   0.4758   0.5802   1.1916   1.1940
     1.2966   1.3050   3.0393   3.1325   3.1735   3.2176   3.3153   3.3688
     3.4041   3.4462   3.4533   3.4565   3.5866

     the Fermi energy is     3.0456 ev

!    total energy              =   -3288.77947597 Ry
     estimated scf accuracy    <       0.00000006 Ry
     smearing contrib. (-TS)   =      -0.00041323 Ry
     internal energy E=F+TS    =   -3288.77906274 Ry

     The total energy is F=E-TS. E is the sum of the following terms:
     one-electron contribution =  -23936.50057460 Ry
     hartree contribution      =   12059.94201628 Ry
     xc contribution           =    -554.31260299 Ry
     ewald contribution        =    9454.00220270 Ry
     electric field correction =       0.00004246 Ry
     one-center paw contrib.   =    -311.91014659 Ry

     total magnetization       =     1.13 Bohr mag/cell
     absolute magnetization    =     3.20 Bohr mag/cell

     convergence has been achieved in  19 iterations

     negative rho (up, down):  1.115E-02 1.034E-02

     Forces acting on atoms (cartesian axes, Ry/au):

     atom    1 type  1   force =     0.00005808    0.00004919    0.11017982
     atom    2 type  1   force =    -0.00009231   -0.00007516   -0.17867969
     atom    3 type  2   force =     0.00006676    0.00007708   -0.02981605
     atom    4 type  2   force =     0.00001064    0.00005835    0.04859356
     atom    5 type  2   force =    -0.02096960   -0.00121366    0.00536011
     atom    6 type  2   force =     0.02085576   -0.00074692    0.00530629
     atom    7 type  1   force =    -0.00008594    0.00033156   -0.00542766
     atom    8 type  1   force =    -0.00000930    0.00630058   -0.00812031
     atom    9 type  2   force =    -0.00003626    0.00001098   -0.00008611
     atom   10 type  2   force =     0.00011082    0.00029989    0.00659789
     atom   11 type  2   force =    -0.00018909    0.00013185    0.00018107
     atom   12 type  2   force =     0.00011652    0.00015395    0.00011705
     atom   13 type  1   force =     0.00005977   -0.00000723    0.00013075
     atom   14 type  1   force =    -0.00013635    0.00029111    0.00025536
     atom   15 type  2   force =    -0.00004169   -0.00012103    0.00011717
     atom   16 type  2   force =     0.00008922   -0.00002876   -0.00009660
     atom   17 type  2   force =    -0.00005458    0.00004320    0.00011905
     atom   18 type  2   force =    -0.00002212   -0.00003112    0.00002152
     atom   19 type  1   force =    -0.00001379    0.00002126    0.00025815
     atom   20 type  1   force =     0.00004163    0.00021428    0.00000723
     atom   21 type  2   force =     0.00005184    0.00008472    0.10258916
     atom   22 type  2   force =    -0.00003927   -0.00006569   -0.00015207
     atom   23 type  2   force =    -0.06830455    0.00049769   -0.03042489
     atom   24 type  2   force =     0.06820326    0.00092658   -0.03046979
     atom   25 type  1   force =     0.00008002   -0.00001363    0.12019004
     atom   26 type  1   force =    -0.00010532   -0.00001803   -0.17864082
     atom   27 type  2   force =     0.00003321   -0.00002776   -0.02754438
     atom   28 type  2   force =     0.00001161   -0.00000666    0.04932742
     atom   29 type  2   force =    -0.02085265    0.00061499    0.00548890
     atom   30 type  2   force =     0.02075603    0.00112649    0.00543717
     atom   31 type  1   force =    -0.00001273   -0.00036975   -0.00627587
     atom   32 type  1   force =    -0.00001025   -0.00653065   -0.00773672
     atom   33 type  2   force =    -0.00000712   -0.00003596    0.00028944
     atom   34 type  2   force =     0.00012574    0.00039597    0.00025377
     atom   35 type  2   force =    -0.00023842   -0.00017239    0.00020028
     atom   36 type  2   force =     0.00016162   -0.00019156    0.00013669
     atom   37 type  1   force =     0.00012659    0.00013469   -0.00011986
     atom   38 type  1   force =    -0.00014107   -0.00032927    0.00024616
     atom   39 type  2   force =    -0.00004831   -0.00002626   -0.00023269
     atom   40 type  2   force =    -0.00000100   -0.00002220    0.00002754
     atom   41 type  2   force =    -0.00038872   -0.00010823    0.00005240
     atom   42 type  2   force =     0.00034848   -0.00002835   -0.00000833
     atom   43 type  1   force =     0.00019210   -0.00004555    0.00025160
     atom   44 type  1   force =    -0.00004155   -0.00004615    0.00037884
     atom   45 type  2   force =     0.00005322    0.00008716    0.10262703
     atom   46 type  3   force =     0.00014086   -0.00014692   -0.00008493
     atom   47 type  2   force =    -0.06830107   -0.00088908   -0.03041933
     atom   48 type  2   force =     0.06820778   -0.00046973   -0.03045277
     atom   49 type  4   force =     0.00009189   -0.00013062    0.00014157
     atom   50 type  4   force =     0.00014961    0.00004675   -0.00009417

     Total force =     0.377426     Total SCF correction =     0.000791
  @ DRIVER MODE: Message from server: STATUS
  @ DRIVER MODE: Message from server: GETFORCE
  @ DRIVER MODE: Returning v,forces,stress,ensemble 

     Writing output data file ./calc.save/
  @ DRIVER MODE: Message from server: EXIT
  @ DRIVE MODE: Exiting  
 
     init_run     :     19.40s CPU     20.37s WALL (       1 calls)
     electrons    :  20684.08s CPU  21385.73s WALL (      25 calls)
     update_pot   :     57.14s CPU     62.25s WALL (      24 calls)
     forces       :    159.06s CPU    179.69s WALL (      25 calls)

     Called by init_run:
     wfcinit      :     12.91s CPU     13.02s WALL (       1 calls)
     potinit      :      4.60s CPU      4.76s WALL (       1 calls)
     hinit0       :      0.84s CPU      0.99s WALL (       1 calls)

     Called by electrons:
     c_bands      :  17268.77s CPU  17651.97s WALL (     698 calls)
     sum_band     :   2332.35s CPU   2396.03s WALL (     698 calls)
     v_of_rho     :    546.30s CPU    568.68s WALL (     723 calls)
     newd         :    202.56s CPU    238.22s WALL (     723 calls)
     PAW_pot      :    280.67s CPU    287.26s WALL (     747 calls)
     mix_rho      :     71.69s CPU     78.00s WALL (     698 calls)
     vdW_kernel   :      3.03s CPU      3.05s WALL (       1 calls)

     Called by c_bands:
     init_us_2    :    117.66s CPU    118.61s WALL (   28920 calls)
     cegterg      :  16898.30s CPU  17180.83s WALL (   14147 calls)

     Called by *egterg:
     cdiaghg      :   3033.87s CPU   3113.28s WALL (   96809 calls)
     h_psi        :   8537.49s CPU   8700.73s WALL (   97496 calls)
     s_psi        :    990.04s CPU    994.10s WALL (   97496 calls)
     g_psi        :     27.54s CPU     27.77s WALL (   83329 calls)

     Called by h_psi:
     h_psi:calbec :   1041.30s CPU   1048.37s WALL (   97496 calls)
     vloc_psi     :   6453.27s CPU   6604.96s WALL (   97496 calls)
     add_vuspsi   :    998.12s CPU   1002.20s WALL (   97496 calls)

     General routines
     calbec       :   1508.12s CPU   1521.15s WALL (  113936 calls)
     fft          :    415.31s CPU    424.59s WALL (   66296 calls)
     ffts         :      4.83s CPU      4.98s WALL (    2842 calls)
     fftw         :   7626.02s CPU   7805.51s WALL (17817310 calls)
     interpolate  :     13.04s CPU     13.60s WALL (    1446 calls)
     davcio       :      0.01s CPU      2.65s WALL (      20 calls)
 
     Parallel routines
 
     PWSCF        :      5h49m CPU      6h 2m WALL

 
   This run was terminated on:   6:35:27  16Feb2022            

=------------------------------------------------------------------------------=
   JOB DONE.
=------------------------------------------------------------------------------=
