
     Program PWSCF v.6.7GPU starts on 18Feb2022 at 14:12:55 

     This program is part of the open-source Quantum ESPRESSO suite
     for quantum simulation of materials; please cite
         "P. Giannozzi et al., J. Phys.:Condens. Matter 21 395502 (2009);
         "P. Giannozzi et al., J. Phys.:Condens. Matter 29 465901 (2017);
         "P. Giannozzi et al., J. Chem. Phys. 152 154105 (2020);
          URL http://www.quantum-espresso.org", 
     in publications or presentations arising from this work. More details at
     http://www.quantum-espresso.org/quote

     Parallel version (MPI), running on     8 processors

     MPI processes distributed on     1 nodes
     R & G space division:  proc/nbgrp/npool/nimage =       8
     Reading input from /storage/coda1/p-amedford6/0/bchen380/C22/O2_C/qe_3995835.sched-torque.pace.gatech.edu/pw.inp
Warning: card &CELL ignored
Warning: card   CELL_DYNAMICS='IPI', ignored
Warning: card / ignored

     Current dimensions of program PWSCF are:
     Max number of different atomic species (ntypx) = 10
     Max number of k-points (npk) =  40000
     Max angular momentum in pseudopotentials (lmaxx) =  3
     Message from routine cell_base_init:
     DEPRECATED: use true lattice parameter, not A to a.u. conversion factor
     file O.UPF: wavefunction(s)  2P renormalized
     file C.UPF: wavefunction(s)  2S 2P renormalized

     **************************************************************************
     Initializing libbeef V0.1.2 with the BEEF-vdW functional.
     Citation: Wellendorff et al., PRB 85, 235149 (2012).
     **************************************************************************


     IMPORTANT: XC functional enforced from input :
     Exchange-correlation= BEEF-VDW
                           (   1   4  43  14   2   0   0)
     Any further DFT definition will be discarded
     Please, verify this is what you really want


     Subspace diagonalization in iterative solution of the eigenvalue problem:
     one sub-group per band group will be used
     scalapack distributed-memory algorithm (size of sub-group:  2*  2 procs)

  @ DRIVER MODE: Connecting to 
 qe_1064200_3995835.sched-torque.pace.gatech.eduga9jnkde_scratch
  using UNIX socket
  @ DRIVER MODE: Message from server: STATUS
  @ DRIVER MODE: Message from server: INIT
  @ DRIVER MODE: Receiving replica           0          -1
  @ DRIVER MODE: Receiving encoded integer          25
  @ DRIVER MODE:  SCF:  T  FORCE:  T  STRESS:  F  VC:  F  ENSEMBLE:  F
  @ DRIVER MODE:  SCF:  T  FORCE:  T  STRESS:  F  VC:  F  ENSEMBLE:  F
 
     Parallelization info
     --------------------
     sticks:   dense  smooth     PW     G-vecs:    dense   smooth      PW
     Min         512     204     57                99005    25058    3749
     Max         513     205     58                99008    25067    3762
     Sum        4097    1637    459               792059   200495   30031
 
     Using Slab Decomposition
 


     bravais-lattice index     =            0
     lattice parameter (alat)  =       1.8897  a.u.
     unit-cell volume          =    6658.9804 (a.u.)^3
     number of atoms/cell      =           50
     number of atomic types    =            3
     number of electrons       =       394.00
     number of Kohn-Sham states=          207
     kinetic-energy cutoff     =      36.7493  Ry
     charge density cutoff     =     367.4932  Ry
     scf convergence threshold =      7.3E-08
     mixing beta               =       0.0500
     number of iterations used =            8  plain     mixing
     Exchange-correlation= BEEF-VDW
                           (   1   4  43  14   2   0   0)

     celldm(1)=   1.889726  celldm(2)=   0.000000  celldm(3)=   0.000000
     celldm(4)=   0.000000  celldm(5)=   0.000000  celldm(6)=   0.000000

     crystal axes: (cart. coord. in units of alat)
               a(1) = (   6.579727   0.000000   0.000000 )  
               a(2) = (  -0.000775   5.961596   0.000000 )  
               a(3) = (   0.000000   0.000000  25.155947 )  

     reciprocal axes: (cart. coord. in units 2 pi/alat)
               b(1) = (  0.151982  0.000020  0.000000 )  
               b(2) = (  0.000000  0.167740  0.000000 )  
               b(3) = (  0.000000  0.000000  0.039752 )  


     PseudoPot. # 1 for Ti read from file:
     /storage/coda1/p-amedford6/0/shared/rich_project_chbe-medford/medford-share/data/pseudos_module/espresso/esp_pseudos_old/Ti.UPF
     MD5 check sum: 88a00a6731bd790ddea75d31a80cb452
     Pseudo is Ultrasoft + core correction, Zval = 12.0
     Generated by new atomic code, or converted to UPF format
     Using radial grid of  851 points,  6 beta functions with: 
                l(1) =   0
                l(2) =   0
                l(3) =   1
                l(4) =   1
                l(5) =   2
                l(6) =   2
     Q(r) pseudized with  6 coefficients,  rinner =    1.000   1.000   1.000
                                                       1.000   1.000

     PseudoPot. # 2 for O  read from file:
     /storage/coda1/p-amedford6/0/shared/rich_project_chbe-medford/medford-share/data/pseudos_module/espresso/esp_pseudos_old/O.UPF
     MD5 check sum: 0234752ac141de4415c5fc33072bef88
     Pseudo is Projector augmented-wave + core cor, Zval =  6.0
     Generated using "atomic" code by A. Dal Corso  v.5.0.99 svn rev. 10869
     Shape of augmentation charge: BESSEL
     Using radial grid of 1095 points,  4 beta functions with: 
                l(1) =   0
                l(2) =   0
                l(3) =   1
                l(4) =   1
     Q(r) pseudized with 0 coefficients 


     PseudoPot. # 3 for C  read from file:
     /storage/coda1/p-amedford6/0/shared/rich_project_chbe-medford/medford-share/data/pseudos_module/espresso/esp_pseudos_old/C.UPF
     MD5 check sum: 5d2aebdfa2cae82b50a7e79e9516da0f
     Pseudo is Projector augmented-wave + core cor, Zval =  4.0
     Generated using "atomic" code by A. Dal Corso  v.5.1
     Shape of augmentation charge: PSQ
     Using radial grid of 1073 points,  4 beta functions with: 
                l(1) =   0
                l(2) =   0
                l(3) =   1
                l(4) =   1
     Q(r) pseudized with 0 coefficients 


     atomic species   valence    mass     pseudopotential
        Ti1           12.00    47.86700     Ti( 1.00)
        O1             6.00    15.99900     O ( 1.00)
        C1             4.00    12.01100     C ( 1.00)

     Starting magnetic structure 
     atomic species   magnetization
        Ti1          0.000
        O1           0.000
        C1           0.000

     No symmetry found



   Cartesian axes

     site n.     atom                  positions (alat units)
         1           Ti1 tau(   1) = (   0.0004258   2.9801865   6.0000000  )
         2           Ti1 tau(   2) = (   3.2906075   1.4906267   6.0002472  )
         3           O1  tau(   3) = (   0.0006271   0.0005054   7.9858123  )
         4           O1  tau(   4) = (   3.2906025   0.0005020   7.3038282  )
         5           O1  tau(   5) = (   4.5942328   1.4918067   9.2879030  )
         6           O1  tau(   6) = (   1.9868534   1.4903216   9.2879459  )
         7           Ti1 tau(   7) = (   3.2905683   2.9818392   9.1597947  )
         8           Ti1 tau(   8) = (   0.0009689   1.5052867   9.3302970  )
         9           O1  tau(   9) = (   3.2895355   0.0032066  11.3746090  )
        10           O1  tau(  10) = (   0.0007044   0.0001637  10.5878211  )
        11           O1  tau(  11) = (   1.2929265   1.4845788  12.6646637  )
        12           O1  tau(  12) = (   5.2874070   1.4867494  12.6584620  )
        13           Ti1 tau(  13) = (   6.5784067   2.9755188  12.8194869  )
        14           Ti1 tau(  14) = (   3.2892799   1.4939290  12.5060033  )
        15           O1  tau(  15) = (   6.5642033   5.9537293  14.7037698  )
        16           O1  tau(  16) = (   3.2919363   5.9505667  13.9836626  )
        17           O1  tau(  17) = (   4.5309332   1.4942454  16.1096435  )
        18           O1  tau(  18) = (   2.0337697   1.4960349  16.1129832  )
        19           Ti1 tau(  19) = (   3.2906310   2.9759294  15.7448506  )
        20           Ti1 tau(  20) = (   0.0250023   1.4086776  16.0050410  )
        21           O1  tau(  21) = (   3.2904802   0.0005063   4.7018136  )
        22           O1  tau(  22) = (  -0.0000158   5.9457188  17.2369263  )
        23           O1  tau(  23) = (   1.3043587   1.4918075   6.0039043  )
        24           O1  tau(  24) = (   5.2767064   1.4903225   6.0039473  )
        25           Ti1 tau(  25) = (   0.0000382   5.9609847   6.0000000  )
        26           Ti1 tau(  26) = (   3.2902200   4.4714249   6.0002472  )
        27           O1  tau(  27) = (   0.0002396   2.9813036   7.9858123  )
        28           O1  tau(  28) = (   3.2902150   2.9813002   7.3038282  )
        29           O1  tau(  29) = (   4.5938453   4.4726049   9.2879030  )
        30           O1  tau(  30) = (   1.9864658   4.4711199   9.2879459  )
        31           Ti1 tau(  31) = (   3.2909982   0.0016570   9.1583503  )
        32           Ti1 tau(  32) = (   0.0005865   4.4518293   9.3323505  )
        33           O1  tau(  33) = (   3.2890264   2.9772467  11.3652708  )
        34           O1  tau(  34) = (   0.0003571   2.9798178  10.5649370  )
        35           O1  tau(  35) = (   1.2897344   4.4680403  12.6592612  )
        36           O1  tau(  36) = (   5.2899965   4.4660360  12.6525382  )
        37           Ti1 tau(  37) = (   6.5774733   5.9566811  12.5535902  )
        38           Ti1 tau(  38) = (   3.2889102   4.4707137  12.4997948  )
        39           O1  tau(  39) = (   6.5768087   2.9565850  14.7427850  )
        40           O1  tau(  40) = (   3.2900695   2.9864406  13.9480390  )
        41           O1  tau(  41) = (   4.5320542   4.4464368  16.1296913  )
        42           O1  tau(  42) = (   2.0282512   4.4431761  16.1324800  )
        43           Ti1 tau(  43) = (   3.3131630   5.9480948  15.7851759  )
        44           Ti1 tau(  44) = (   0.0307700   4.5956047  16.0591435  )
        45           O1  tau(  45) = (   3.2900926   2.9813045   4.7018136  )
        46           C1  tau(  46) = (   6.5161528   2.9100774  17.6753604  )
        47           O1  tau(  47) = (   1.3039711   4.4726057   6.0039043  )
        48           O1  tau(  48) = (   5.2763189   4.4711207   6.0039473  )
        49           O1  tau(  49) = (   6.3949639   3.1657575  18.8538198  )
        50           O1  tau(  50) = (   6.2131409   2.4122203  20.0654639  )

     number of k points=    10  Fermi-Dirac smearing, width (Ry)=  0.0007
                       cart. coord. in units 2pi/alat
        k(    1) = (   0.0000000   0.0000000   0.0000000), wk =   0.0625000
        k(    2) = (   0.0000000   0.0419351   0.0000000), wk =   0.1250000
        k(    3) = (   0.0000000  -0.0838702   0.0000000), wk =   0.0625000
        k(    4) = (   0.0379955   0.0000049   0.0000000), wk =   0.1250000
        k(    5) = (   0.0379955   0.0419400   0.0000000), wk =   0.1250000
        k(    6) = (   0.0379955  -0.0838652   0.0000000), wk =   0.1250000
        k(    7) = (   0.0379955  -0.0419301   0.0000000), wk =   0.1250000
        k(    8) = (  -0.0759910  -0.0000099   0.0000000), wk =   0.0625000
        k(    9) = (  -0.0759910   0.0419252   0.0000000), wk =   0.1250000
        k(   10) = (  -0.0759910  -0.0838800   0.0000000), wk =   0.0625000

     Dense  grid:   792059 G-vectors     FFT dimensions: (  75,  72, 300)

     Smooth grid:   200495 G-vectors     FFT dimensions: (  48,  45, 192)

     Estimated max dynamical RAM per process >     767.13 MB

     Estimated total dynamical RAM >       5.99 GB

     Check: negative core charge=   -0.000008
     Generating pointlists ...
     new r_m :   0.7392 (alat units)  1.3968 (a.u.) for type    1
     new r_m :   0.4999 (alat units)  0.9447 (a.u.) for type    2
     new r_m :   0.4999 (alat units)  0.9447 (a.u.) for type    3

     Initial potential from superposition of free atoms

     starting charge  377.99920, renormalised to  394.00000

     negative rho (up, down):  1.169E-02 1.169E-02


     %%%%%%%%%%%%%%%%%%%%%%%%%%%%%%%%%%%%%%%%%%%%%%%%%%%%%%%%%%%%%%%%%%%%%%%%
     %                                                                      %
     % You are using vdW-DF, which was implemented by the Thonhauser group. %
     % Please cite the following two papers that made this development      %
     % possible and the two reviews that describe the various versions:     %
     %                                                                      %
     %   T. Thonhauser et al., PRL 115, 136402 (2015).                      %
     %   T. Thonhauser et al., PRB 76, 125112 (2007).                       %
     %   K. Berland et al., Rep. Prog. Phys. 78, 066501 (2015).             %
     %   D.C. Langreth et al., J. Phys.: Condens. Matter 21, 084203 (2009). %
     %                                                                      %
     %                                                                      %
     % If you are calculating the stress with vdW-DF, please also cite:     %
     %                                                                      %
     %   R. Sabatini et al., J. Phys.: Condens. Matter 24, 424209 (2012).   %
     %                                                                      %
     %%%%%%%%%%%%%%%%%%%%%%%%%%%%%%%%%%%%%%%%%%%%%%%%%%%%%%%%%%%%%%%%%%%%%%%%


 
     Adding external electric field

     Computed dipole along edir(3) : 
        Dipole               -8.3255 Ry au,        -21.1613 Debye
        Dipole field         -0.0157 Ry au, 
 
        Potential amp.        1.4564 Ry
        Total length         46.3494 bohr
 
 
     Adding external electric field

     Computed dipole along edir(3) : 
        Dipole               -8.3255 Ry au,        -21.1613 Debye
        Dipole field         -0.0157 Ry au, 
 
        Potential amp.        1.4564 Ry
        Total length         46.3494 bohr
 
     Starting wfcs are  296 randomized atomic wfcs
     Checking if some PAW data can be deallocated... 
  @ DRIVER MODE: Message from server: STATUS
  @ DRIVER MODE: Message from server: POSDATA
  @ DRIVER MODE: Reading and sharing cell 
  @ DRIVER MODE: Reading and sharing positions 
  @ DRIVER MODE: Received positions 

     total cpu time spent up to now is       52.7 secs

     Self-consistent Calculation

     iteration #  1     ecut=    36.75 Ry     beta= 0.05
     Davidson diagonalization with overlap
     ethr =  1.00E-02,  avg # of iterations =  2.0

     negative rho (up, down):  1.077E-02 1.077E-02
 
     Adding external electric field

     Computed dipole along edir(3) : 
        Dipole               33.2700 Ry au,         84.5639 Debye
        Dipole field          0.0628 Ry au, 
 
        Potential amp.       -5.8201 Ry
        Total length         46.3494 bohr
 
 
     Adding external electric field

     Computed dipole along edir(3) : 
        Dipole               33.2700 Ry au,         84.5639 Debye
        Dipole field          0.0628 Ry au, 
 
        Potential amp.       -5.8201 Ry
        Total length         46.3494 bohr
 

     total cpu time spent up to now is       89.2 secs

     total energy              =   -3095.99784781 Ry
     estimated scf accuracy    <    2802.04124481 Ry

     total magnetization       =    -0.00 Bohr mag/cell
     absolute magnetization    =     0.08 Bohr mag/cell

     iteration #  2     ecut=    36.75 Ry     beta= 0.05
     Davidson diagonalization with overlap
     ethr =  1.00E-02,  avg # of iterations = 15.7

     negative rho (up, down):  1.013E-02 1.013E-02
 
     Adding external electric field

     Computed dipole along edir(3) : 
        Dipole               -3.8406 Ry au,         -9.7619 Debye
        Dipole field         -0.0072 Ry au, 
 
        Potential amp.        0.6719 Ry
        Total length         46.3494 bohr
 
 
     Adding external electric field

     Computed dipole along edir(3) : 
        Dipole               -3.8406 Ry au,         -9.7619 Debye
        Dipole field         -0.0072 Ry au, 
 
        Potential amp.        0.6719 Ry
        Total length         46.3494 bohr
 

     total cpu time spent up to now is      363.6 secs

     total energy              =   -2902.86512963 Ry
     estimated scf accuracy    <   56442.74672987 Ry

     total magnetization       =    -0.31 Bohr mag/cell
     absolute magnetization    =     0.72 Bohr mag/cell

     iteration #  3     ecut=    36.75 Ry     beta= 0.05
     Davidson diagonalization with overlap
     ethr =  1.00E-02,  avg # of iterations = 16.1

     negative rho (up, down):  9.938E-03 9.937E-03
 
     Adding external electric field

     Computed dipole along edir(3) : 
        Dipole               -5.2389 Ry au,        -13.3160 Debye
        Dipole field         -0.0099 Ry au, 
 
        Potential amp.        0.9165 Ry
        Total length         46.3494 bohr
 
 
     Adding external electric field

     Computed dipole along edir(3) : 
        Dipole               -5.2389 Ry au,        -13.3160 Debye
        Dipole field         -0.0099 Ry au, 
 
        Potential amp.        0.9165 Ry
        Total length         46.3494 bohr
 

     total cpu time spent up to now is      675.0 secs

     total energy              =   -3331.82342851 Ry
     estimated scf accuracy    <    2179.91314274 Ry

     total magnetization       =    -0.26 Bohr mag/cell
     absolute magnetization    =     0.42 Bohr mag/cell

     iteration #  4     ecut=    36.75 Ry     beta= 0.05
     Davidson diagonalization with overlap
     c_bands:  2 eigenvalues not converged
     ethr =  1.00E-02,  avg # of iterations =  5.5

     negative rho (up, down):  9.762E-03 9.822E-03
 
     Adding external electric field

     Computed dipole along edir(3) : 
        Dipole               -7.5049 Ry au,        -19.0756 Debye
        Dipole field         -0.0142 Ry au, 
 
        Potential amp.        1.3129 Ry
        Total length         46.3494 bohr
 
 
     Adding external electric field

     Computed dipole along edir(3) : 
        Dipole               -7.5049 Ry au,        -19.0756 Debye
        Dipole field         -0.0142 Ry au, 
 
        Potential amp.        1.3129 Ry
        Total length         46.3494 bohr
 

     total cpu time spent up to now is      809.9 secs

     total energy              =   -3296.47063817 Ry
     estimated scf accuracy    <    1632.47430181 Ry

     total magnetization       =    -1.33 Bohr mag/cell
     absolute magnetization    =     2.99 Bohr mag/cell

     iteration #  5     ecut=    36.75 Ry     beta= 0.05
     Davidson diagonalization with overlap
     ethr =  1.00E-02,  avg # of iterations =  9.4

     negative rho (up, down):  9.411E-03 9.441E-03
 
     Adding external electric field

     Computed dipole along edir(3) : 
        Dipole               -5.6350 Ry au,        -14.3228 Debye
        Dipole field         -0.0106 Ry au, 
 
        Potential amp.        0.9858 Ry
        Total length         46.3494 bohr
 
 
     Adding external electric field

     Computed dipole along edir(3) : 
        Dipole               -5.6350 Ry au,        -14.3228 Debye
        Dipole field         -0.0106 Ry au, 
 
        Potential amp.        0.9858 Ry
        Total length         46.3494 bohr
 

     total cpu time spent up to now is     1271.9 secs

     total energy              =   -3342.76355383 Ry
     estimated scf accuracy    <     993.82288768 Ry

     total magnetization       =    -0.63 Bohr mag/cell
     absolute magnetization    =     0.77 Bohr mag/cell

     iteration #  6     ecut=    36.75 Ry     beta= 0.05
     Davidson diagonalization with overlap
     ethr =  1.00E-02,  avg # of iterations =  1.5

     negative rho (up, down):  9.552E-03 9.571E-03
 
     Adding external electric field

     Computed dipole along edir(3) : 
        Dipole               -4.7581 Ry au,        -12.0939 Debye
        Dipole field         -0.0090 Ry au, 
 
        Potential amp.        0.8324 Ry
        Total length         46.3494 bohr
 
 
     Adding external electric field

     Computed dipole along edir(3) : 
        Dipole               -4.7581 Ry au,        -12.0939 Debye
        Dipole field         -0.0090 Ry au, 
 
        Potential amp.        0.8324 Ry
        Total length         46.3494 bohr
 

     total cpu time spent up to now is     1384.4 secs

     total energy              =   -3345.93705012 Ry
     estimated scf accuracy    <     180.61112135 Ry

     total magnetization       =    -0.38 Bohr mag/cell
     absolute magnetization    =     0.52 Bohr mag/cell

     iteration #  7     ecut=    36.75 Ry     beta= 0.05
     Davidson diagonalization with overlap
     ethr =  1.00E-02,  avg # of iterations =  1.0

     negative rho (up, down):  9.975E-03 9.977E-03
 
     Adding external electric field

     Computed dipole along edir(3) : 
        Dipole               -3.0016 Ry au,         -7.6294 Debye
        Dipole field         -0.0057 Ry au, 
 
        Potential amp.        0.5251 Ry
        Total length         46.3494 bohr
 
 
     Adding external electric field

     Computed dipole along edir(3) : 
        Dipole               -3.0016 Ry au,         -7.6294 Debye
        Dipole field         -0.0057 Ry au, 
 
        Potential amp.        0.5251 Ry
        Total length         46.3494 bohr
 

     total cpu time spent up to now is     1416.6 secs

     total energy              =   -3341.11316351 Ry
     estimated scf accuracy    <     170.60864110 Ry

     total magnetization       =    -0.42 Bohr mag/cell
     absolute magnetization    =     0.55 Bohr mag/cell

     iteration #  8     ecut=    36.75 Ry     beta= 0.05
     Davidson diagonalization with overlap
     ethr =  1.00E-02,  avg # of iterations =  9.5

     negative rho (up, down):  9.976E-03 9.959E-03
 
     Adding external electric field

     Computed dipole along edir(3) : 
        Dipole               -3.6462 Ry au,         -9.2677 Debye
        Dipole field         -0.0069 Ry au, 
 
        Potential amp.        0.6378 Ry
        Total length         46.3494 bohr
 
 
     Adding external electric field

     Computed dipole along edir(3) : 
        Dipole               -3.6462 Ry au,         -9.2677 Debye
        Dipole field         -0.0069 Ry au, 
 
        Potential amp.        0.6378 Ry
        Total length         46.3494 bohr
 

     total cpu time spent up to now is     1596.1 secs

     total energy              =   -3347.27671849 Ry
     estimated scf accuracy    <      11.55996176 Ry

     total magnetization       =    -0.12 Bohr mag/cell
     absolute magnetization    =     0.59 Bohr mag/cell

     iteration #  9     ecut=    36.75 Ry     beta= 0.05
     Davidson diagonalization with overlap
     ethr =  2.93E-03,  avg # of iterations =  5.5

     negative rho (up, down):  1.059E-02 1.056E-02
 
     Adding external electric field

     Computed dipole along edir(3) : 
        Dipole               -5.3895 Ry au,        -13.6988 Debye
        Dipole field         -0.0102 Ry au, 
 
        Potential amp.        0.9428 Ry
        Total length         46.3494 bohr
 
 
     Adding external electric field

     Computed dipole along edir(3) : 
        Dipole               -5.3895 Ry au,        -13.6988 Debye
        Dipole field         -0.0102 Ry au, 
 
        Potential amp.        0.9428 Ry
        Total length         46.3494 bohr
 

     total cpu time spent up to now is     1646.2 secs

     total energy              =   -3346.17435344 Ry
     estimated scf accuracy    <      10.47418936 Ry

     total magnetization       =    -0.03 Bohr mag/cell
     absolute magnetization    =     0.36 Bohr mag/cell

     iteration # 10     ecut=    36.75 Ry     beta= 0.05
     Davidson diagonalization with overlap
     ethr =  2.66E-03,  avg # of iterations = 11.0

     negative rho (up, down):  1.120E-02 1.114E-02
 
     Adding external electric field

     Computed dipole along edir(3) : 
        Dipole               -4.4256 Ry au,        -11.2488 Debye
        Dipole field         -0.0084 Ry au, 
 
        Potential amp.        0.7742 Ry
        Total length         46.3494 bohr
 
 
     Adding external electric field

     Computed dipole along edir(3) : 
        Dipole               -4.4256 Ry au,        -11.2488 Debye
        Dipole field         -0.0084 Ry au, 
 
        Potential amp.        0.7742 Ry
        Total length         46.3494 bohr
 

     total cpu time spent up to now is     1693.9 secs

     total energy              =   -3348.80405211 Ry
     estimated scf accuracy    <      38.46565821 Ry

     total magnetization       =    -0.31 Bohr mag/cell
     absolute magnetization    =     0.63 Bohr mag/cell

     iteration # 11     ecut=    36.75 Ry     beta= 0.05
     Davidson diagonalization with overlap
     ethr =  2.66E-03,  avg # of iterations = 12.5

     negative rho (up, down):  1.137E-02 1.130E-02
 
     Adding external electric field

     Computed dipole along edir(3) : 
        Dipole               -5.0138 Ry au,        -12.7437 Debye
        Dipole field         -0.0095 Ry au, 
 
        Potential amp.        0.8771 Ry
        Total length         46.3494 bohr
 
 
     Adding external electric field

     Computed dipole along edir(3) : 
        Dipole               -5.0138 Ry au,        -12.7437 Debye
        Dipole field         -0.0095 Ry au, 
 
        Potential amp.        0.8771 Ry
        Total length         46.3494 bohr
 

     total cpu time spent up to now is     1741.5 secs

     total energy              =   -3349.66198574 Ry
     estimated scf accuracy    <      96.99111370 Ry

     total magnetization       =     0.10 Bohr mag/cell
     absolute magnetization    =     0.71 Bohr mag/cell

     iteration # 12     ecut=    36.75 Ry     beta= 0.05
     Davidson diagonalization with overlap
     ethr =  2.66E-03,  avg # of iterations =  1.2

     negative rho (up, down):  1.157E-02 1.146E-02
 
     Adding external electric field

     Computed dipole along edir(3) : 
        Dipole               -4.8331 Ry au,        -12.2846 Debye
        Dipole field         -0.0091 Ry au, 
 
        Potential amp.        0.8455 Ry
        Total length         46.3494 bohr
 
 
     Adding external electric field

     Computed dipole along edir(3) : 
        Dipole               -4.8331 Ry au,        -12.2846 Debye
        Dipole field         -0.0091 Ry au, 
 
        Potential amp.        0.8455 Ry
        Total length         46.3494 bohr
 

     total cpu time spent up to now is     1775.2 secs

     total energy              =   -3349.78576518 Ry
     estimated scf accuracy    <      94.28668518 Ry

     total magnetization       =     0.26 Bohr mag/cell
     absolute magnetization    =     0.57 Bohr mag/cell

     iteration # 13     ecut=    36.75 Ry     beta= 0.05
     Davidson diagonalization with overlap
     ethr =  2.66E-03,  avg # of iterations =  1.0

     negative rho (up, down):  1.106E-02 1.102E-02
 
     Adding external electric field

     Computed dipole along edir(3) : 
        Dipole               -1.8403 Ry au,         -4.6775 Debye
        Dipole field         -0.0035 Ry au, 
 
        Potential amp.        0.3219 Ry
        Total length         46.3494 bohr
 
 
     Adding external electric field

     Computed dipole along edir(3) : 
        Dipole               -1.8403 Ry au,         -4.6775 Debye
        Dipole field         -0.0035 Ry au, 
 
        Potential amp.        0.3219 Ry
        Total length         46.3494 bohr
 

     total cpu time spent up to now is     1814.4 secs

     total energy              =   -3344.59472636 Ry
     estimated scf accuracy    <      68.38878676 Ry

     total magnetization       =     0.11 Bohr mag/cell
     absolute magnetization    =     0.44 Bohr mag/cell

     iteration # 14     ecut=    36.75 Ry     beta= 0.05
     Davidson diagonalization with overlap
     ethr =  2.66E-03,  avg # of iterations = 11.9

     negative rho (up, down):  1.064E-02 1.062E-02
 
     Adding external electric field

     Computed dipole along edir(3) : 
        Dipole               -0.7730 Ry au,         -1.9649 Debye
        Dipole field         -0.0015 Ry au, 
 
        Potential amp.        0.1352 Ry
        Total length         46.3494 bohr
 
 
     Adding external electric field

     Computed dipole along edir(3) : 
        Dipole               -0.7730 Ry au,         -1.9649 Debye
        Dipole field         -0.0015 Ry au, 
 
        Potential amp.        0.1352 Ry
        Total length         46.3494 bohr
 

     total cpu time spent up to now is     1866.0 secs

     total energy              =   -3348.11312180 Ry
     estimated scf accuracy    <     764.87873650 Ry

     total magnetization       =    -0.03 Bohr mag/cell
     absolute magnetization    =     0.68 Bohr mag/cell

     iteration # 15     ecut=    36.75 Ry     beta= 0.05
     Davidson diagonalization with overlap
     ethr =  2.66E-03,  avg # of iterations =  7.0

     negative rho (up, down):  1.071E-02 1.070E-02
 
     Adding external electric field

     Computed dipole along edir(3) : 
        Dipole               -3.0746 Ry au,         -7.8149 Debye
        Dipole field         -0.0058 Ry au, 
 
        Potential amp.        0.5379 Ry
        Total length         46.3494 bohr
 
 
     Adding external electric field

     Computed dipole along edir(3) : 
        Dipole               -3.0746 Ry au,         -7.8149 Debye
        Dipole field         -0.0058 Ry au, 
 
        Potential amp.        0.5379 Ry
        Total length         46.3494 bohr
 

     total cpu time spent up to now is     1913.8 secs

     total energy              =   -3339.48490338 Ry
     estimated scf accuracy    <     911.06109912 Ry

     total magnetization       =    -0.27 Bohr mag/cell
     absolute magnetization    =     0.60 Bohr mag/cell

     iteration # 16     ecut=    36.75 Ry     beta= 0.05
     Davidson diagonalization with overlap
     c_bands:  5 eigenvalues not converged
     c_bands:  2 eigenvalues not converged
     ethr =  2.66E-03,  avg # of iterations = 13.8

     negative rho (up, down):  1.120E-02 1.120E-02
 
     Adding external electric field

     Computed dipole along edir(3) : 
        Dipole               -2.9664 Ry au,         -7.5399 Debye
        Dipole field         -0.0056 Ry au, 
 
        Potential amp.        0.5189 Ry
        Total length         46.3494 bohr
 
 
     Adding external electric field

     Computed dipole along edir(3) : 
        Dipole               -2.9664 Ry au,         -7.5399 Debye
        Dipole field         -0.0056 Ry au, 
 
        Potential amp.        0.5189 Ry
        Total length         46.3494 bohr
 

     total cpu time spent up to now is     1967.7 secs

     total energy              =   -3345.51798164 Ry
     estimated scf accuracy    <      33.21086406 Ry

     total magnetization       =     0.11 Bohr mag/cell
     absolute magnetization    =     0.36 Bohr mag/cell

     iteration # 17     ecut=    36.75 Ry     beta= 0.05
     Davidson diagonalization with overlap
     ethr =  2.66E-03,  avg # of iterations =  2.5

     negative rho (up, down):  1.104E-02 1.105E-02
 
     Adding external electric field

     Computed dipole along edir(3) : 
        Dipole               -1.4398 Ry au,         -3.6595 Debye
        Dipole field         -0.0027 Ry au, 
 
        Potential amp.        0.2519 Ry
        Total length         46.3494 bohr
 
 
     Adding external electric field

     Computed dipole along edir(3) : 
        Dipole               -1.4398 Ry au,         -3.6595 Debye
        Dipole field         -0.0027 Ry au, 
 
        Potential amp.        0.2519 Ry
        Total length         46.3494 bohr
 

     total cpu time spent up to now is     2002.1 secs

     total energy              =   -3344.73851594 Ry
     estimated scf accuracy    <      33.51586200 Ry

     total magnetization       =     0.18 Bohr mag/cell
     absolute magnetization    =     0.47 Bohr mag/cell

     iteration # 18     ecut=    36.75 Ry     beta= 0.05
     Davidson diagonalization with overlap
     ethr =  2.66E-03,  avg # of iterations =  2.0

     negative rho (up, down):  1.115E-02 1.116E-02
 
     Adding external electric field

     Computed dipole along edir(3) : 
        Dipole               -1.4940 Ry au,         -3.7973 Debye
        Dipole field         -0.0028 Ry au, 
 
        Potential amp.        0.2613 Ry
        Total length         46.3494 bohr
 
 
     Adding external electric field

     Computed dipole along edir(3) : 
        Dipole               -1.4940 Ry au,         -3.7973 Debye
        Dipole field         -0.0028 Ry au, 
 
        Potential amp.        0.2613 Ry
        Total length         46.3494 bohr
 

     total cpu time spent up to now is     2041.1 secs

     total energy              =   -3345.17079413 Ry
     estimated scf accuracy    <      27.83657579 Ry

     total magnetization       =     0.33 Bohr mag/cell
     absolute magnetization    =     0.60 Bohr mag/cell

     iteration # 19     ecut=    36.75 Ry     beta= 0.05
     Davidson diagonalization with overlap
     ethr =  2.66E-03,  avg # of iterations =  1.2

     negative rho (up, down):  1.094E-02 1.094E-02
 
     Adding external electric field

     Computed dipole along edir(3) : 
        Dipole               -1.0513 Ry au,         -2.6722 Debye
        Dipole field         -0.0020 Ry au, 
 
        Potential amp.        0.1839 Ry
        Total length         46.3494 bohr
 
 
     Adding external electric field

     Computed dipole along edir(3) : 
        Dipole               -1.0513 Ry au,         -2.6722 Debye
        Dipole field         -0.0020 Ry au, 
 
        Potential amp.        0.1839 Ry
        Total length         46.3494 bohr
 

     total cpu time spent up to now is     2078.3 secs

     total energy              =   -3344.90165816 Ry
     estimated scf accuracy    <      27.97048728 Ry

     total magnetization       =     0.10 Bohr mag/cell
     absolute magnetization    =     0.48 Bohr mag/cell

     iteration # 20     ecut=    36.75 Ry     beta= 0.05
     Davidson diagonalization with overlap
     ethr =  2.66E-03,  avg # of iterations =  1.3

     negative rho (up, down):  1.060E-02 1.058E-02
 
     Adding external electric field

     Computed dipole along edir(3) : 
        Dipole               -0.5785 Ry au,         -1.4704 Debye
        Dipole field         -0.0011 Ry au, 
 
        Potential amp.        0.1012 Ry
        Total length         46.3494 bohr
 
 
     Adding external electric field

     Computed dipole along edir(3) : 
        Dipole               -0.5785 Ry au,         -1.4704 Debye
        Dipole field         -0.0011 Ry au, 
 
        Potential amp.        0.1012 Ry
        Total length         46.3494 bohr
 

     total cpu time spent up to now is     2121.3 secs

     total energy              =   -3344.23207439 Ry
     estimated scf accuracy    <      22.52070454 Ry

     total magnetization       =     0.12 Bohr mag/cell
     absolute magnetization    =     0.64 Bohr mag/cell

     iteration # 21     ecut=    36.75 Ry     beta= 0.05
     Davidson diagonalization with overlap
     ethr =  2.66E-03,  avg # of iterations =  8.8

     negative rho (up, down):  1.068E-02 1.065E-02
 
     Adding external electric field

     Computed dipole along edir(3) : 
        Dipole               -1.2635 Ry au,         -3.2115 Debye
        Dipole field         -0.0024 Ry au, 
 
        Potential amp.        0.2210 Ry
        Total length         46.3494 bohr
 
 
     Adding external electric field

     Computed dipole along edir(3) : 
        Dipole               -1.2635 Ry au,         -3.2115 Debye
        Dipole field         -0.0024 Ry au, 
 
        Potential amp.        0.2210 Ry
        Total length         46.3494 bohr
 

     total cpu time spent up to now is     2162.5 secs

     total energy              =   -3344.69069040 Ry
     estimated scf accuracy    <      13.23917162 Ry

     total magnetization       =    -0.51 Bohr mag/cell
     absolute magnetization    =     0.69 Bohr mag/cell

     iteration # 22     ecut=    36.75 Ry     beta= 0.05
     Davidson diagonalization with overlap
     ethr =  2.66E-03,  avg # of iterations =  2.0

     negative rho (up, down):  1.055E-02 1.051E-02
 
     Adding external electric field

     Computed dipole along edir(3) : 
        Dipole               -1.1919 Ry au,         -3.0296 Debye
        Dipole field         -0.0022 Ry au, 
 
        Potential amp.        0.2085 Ry
        Total length         46.3494 bohr
 
 
     Adding external electric field

     Computed dipole along edir(3) : 
        Dipole               -1.1919 Ry au,         -3.0296 Debye
        Dipole field         -0.0022 Ry au, 
 
        Potential amp.        0.2085 Ry
        Total length         46.3494 bohr
 

     total cpu time spent up to now is     2195.7 secs

     total energy              =   -3344.68332238 Ry
     estimated scf accuracy    <       7.04612949 Ry

     total magnetization       =    -0.56 Bohr mag/cell
     absolute magnetization    =     0.89 Bohr mag/cell

     iteration # 23     ecut=    36.75 Ry     beta= 0.05
     Davidson diagonalization with overlap
     ethr =  1.79E-03,  avg # of iterations =  3.4

     negative rho (up, down):  1.058E-02 1.055E-02
 
     Adding external electric field

     Computed dipole along edir(3) : 
        Dipole               -1.5145 Ry au,         -3.8494 Debye
        Dipole field         -0.0029 Ry au, 
 
        Potential amp.        0.2649 Ry
        Total length         46.3494 bohr
 
 
     Adding external electric field

     Computed dipole along edir(3) : 
        Dipole               -1.5145 Ry au,         -3.8494 Debye
        Dipole field         -0.0029 Ry au, 
 
        Potential amp.        0.2649 Ry
        Total length         46.3494 bohr
 

     total cpu time spent up to now is     2231.2 secs

     total energy              =   -3344.88902822 Ry
     estimated scf accuracy    <       1.68529505 Ry

     total magnetization       =    -0.27 Bohr mag/cell
     absolute magnetization    =     0.61 Bohr mag/cell

     iteration # 24     ecut=    36.75 Ry     beta= 0.05
     Davidson diagonalization with overlap
     c_bands:  5 eigenvalues not converged
     c_bands:  5 eigenvalues not converged
     c_bands:  3 eigenvalues not converged
     c_bands:  5 eigenvalues not converged
     ethr =  4.28E-04,  avg # of iterations = 11.1

     negative rho (up, down):  1.058E-02 1.054E-02
 
     Adding external electric field

     Computed dipole along edir(3) : 
        Dipole               -1.5272 Ry au,         -3.8817 Debye
        Dipole field         -0.0029 Ry au, 
 
        Potential amp.        0.2672 Ry
        Total length         46.3494 bohr
 
 
     Adding external electric field

     Computed dipole along edir(3) : 
        Dipole               -1.5272 Ry au,         -3.8817 Debye
        Dipole field         -0.0029 Ry au, 
 
        Potential amp.        0.2672 Ry
        Total length         46.3494 bohr
 

     total cpu time spent up to now is     2279.8 secs

     total energy              =   -3345.56280853 Ry
     estimated scf accuracy    <      44.47464850 Ry

     total magnetization       =     1.59 Bohr mag/cell
     absolute magnetization    =     1.70 Bohr mag/cell

     iteration # 25     ecut=    36.75 Ry     beta= 0.05
     Davidson diagonalization with overlap
     c_bands:  3 eigenvalues not converged
     ethr =  4.28E-04,  avg # of iterations =  4.4

     negative rho (up, down):  1.055E-02 1.051E-02
 
     Adding external electric field

     Computed dipole along edir(3) : 
        Dipole               -1.5332 Ry au,         -3.8970 Debye
        Dipole field         -0.0029 Ry au, 
 
        Potential amp.        0.2682 Ry
        Total length         46.3494 bohr
 
 
     Adding external electric field

     Computed dipole along edir(3) : 
        Dipole               -1.5332 Ry au,         -3.8970 Debye
        Dipole field         -0.0029 Ry au, 
 
        Potential amp.        0.2682 Ry
        Total length         46.3494 bohr
 

     total cpu time spent up to now is     2318.9 secs

     total energy              =   -3345.54234599 Ry
     estimated scf accuracy    <      60.87383104 Ry

     total magnetization       =     1.58 Bohr mag/cell
     absolute magnetization    =     1.66 Bohr mag/cell

     iteration # 26     ecut=    36.75 Ry     beta= 0.05
     Davidson diagonalization with overlap
     ethr =  4.28E-04,  avg # of iterations =  2.0

     negative rho (up, down):  1.055E-02 1.051E-02
 
     Adding external electric field

     Computed dipole along edir(3) : 
        Dipole               -1.5653 Ry au,         -3.9785 Debye
        Dipole field         -0.0030 Ry au, 
 
        Potential amp.        0.2738 Ry
        Total length         46.3494 bohr
 
 
     Adding external electric field

     Computed dipole along edir(3) : 
        Dipole               -1.5653 Ry au,         -3.9785 Debye
        Dipole field         -0.0030 Ry au, 
 
        Potential amp.        0.2738 Ry
        Total length         46.3494 bohr
 

     total cpu time spent up to now is     2352.6 secs

     total energy              =   -3345.56560017 Ry
     estimated scf accuracy    <      57.75680158 Ry

     total magnetization       =     1.71 Bohr mag/cell
     absolute magnetization    =     1.76 Bohr mag/cell

     iteration # 27     ecut=    36.75 Ry     beta= 0.05
     Davidson diagonalization with overlap
     ethr =  4.28E-04,  avg # of iterations =  1.1

     negative rho (up, down):  1.054E-02 1.050E-02
 
     Adding external electric field

     Computed dipole along edir(3) : 
        Dipole               -1.5008 Ry au,         -3.8146 Debye
        Dipole field         -0.0028 Ry au, 
 
        Potential amp.        0.2625 Ry
        Total length         46.3494 bohr
 
 
     Adding external electric field

     Computed dipole along edir(3) : 
        Dipole               -1.5008 Ry au,         -3.8146 Debye
        Dipole field         -0.0028 Ry au, 
 
        Potential amp.        0.2625 Ry
        Total length         46.3494 bohr
 

     total cpu time spent up to now is     2434.0 secs

     total energy              =   -3345.48185914 Ry
     estimated scf accuracy    <      59.12329410 Ry

     total magnetization       =     1.65 Bohr mag/cell
     absolute magnetization    =     1.70 Bohr mag/cell

     iteration # 28     ecut=    36.75 Ry     beta= 0.05
     Davidson diagonalization with overlap
     c_bands:  2 eigenvalues not converged
     ethr =  4.28E-04,  avg # of iterations =  4.2

     negative rho (up, down):  1.049E-02 1.046E-02
 
     Adding external electric field

     Computed dipole along edir(3) : 
        Dipole               -1.3924 Ry au,         -3.5391 Debye
        Dipole field         -0.0026 Ry au, 
 
        Potential amp.        0.2436 Ry
        Total length         46.3494 bohr
 
 
     Adding external electric field

     Computed dipole along edir(3) : 
        Dipole               -1.3924 Ry au,         -3.5391 Debye
        Dipole field         -0.0026 Ry au, 
 
        Potential amp.        0.2436 Ry
        Total length         46.3494 bohr
 

     total cpu time spent up to now is     2469.9 secs

     total energy              =   -3345.44701806 Ry
     estimated scf accuracy    <      61.73906490 Ry

     total magnetization       =     1.24 Bohr mag/cell
     absolute magnetization    =     1.30 Bohr mag/cell

     iteration # 29     ecut=    36.75 Ry     beta= 0.05
     Davidson diagonalization with overlap
     ethr =  4.28E-04,  avg # of iterations =  2.0

     negative rho (up, down):  1.051E-02 1.047E-02
 
     Adding external electric field

     Computed dipole along edir(3) : 
        Dipole               -1.3982 Ry au,         -3.5540 Debye
        Dipole field         -0.0026 Ry au, 
 
        Potential amp.        0.2446 Ry
        Total length         46.3494 bohr
 
 
     Adding external electric field

     Computed dipole along edir(3) : 
        Dipole               -1.3982 Ry au,         -3.5540 Debye
        Dipole field         -0.0026 Ry au, 
 
        Potential amp.        0.2446 Ry
        Total length         46.3494 bohr
 

     total cpu time spent up to now is     2510.6 secs

     total energy              =   -3345.48867470 Ry
     estimated scf accuracy    <      54.52886079 Ry

     total magnetization       =     1.46 Bohr mag/cell
     absolute magnetization    =     1.51 Bohr mag/cell

     iteration # 30     ecut=    36.75 Ry     beta= 0.05
     Davidson diagonalization with overlap
     ethr =  4.28E-04,  avg # of iterations =  1.6

     negative rho (up, down):  1.048E-02 1.047E-02
 
     Adding external electric field

     Computed dipole along edir(3) : 
        Dipole               -1.3186 Ry au,         -3.3516 Debye
        Dipole field         -0.0025 Ry au, 
 
        Potential amp.        0.2307 Ry
        Total length         46.3494 bohr
 
 
     Adding external electric field

     Computed dipole along edir(3) : 
        Dipole               -1.3186 Ry au,         -3.3516 Debye
        Dipole field         -0.0025 Ry au, 
 
        Potential amp.        0.2307 Ry
        Total length         46.3494 bohr
 

     total cpu time spent up to now is     2544.9 secs

     total energy              =   -3345.25262006 Ry
     estimated scf accuracy    <      61.61957975 Ry

     total magnetization       =     0.99 Bohr mag/cell
     absolute magnetization    =     1.06 Bohr mag/cell

     iteration # 31     ecut=    36.75 Ry     beta= 0.05
     Davidson diagonalization with overlap
     ethr =  4.28E-04,  avg # of iterations =  4.5

     negative rho (up, down):  1.057E-02 1.052E-02
 
     Adding external electric field

     Computed dipole along edir(3) : 
        Dipole               -1.3228 Ry au,         -3.3621 Debye
        Dipole field         -0.0025 Ry au, 
 
        Potential amp.        0.2314 Ry
        Total length         46.3494 bohr
 
 
     Adding external electric field

     Computed dipole along edir(3) : 
        Dipole               -1.3228 Ry au,         -3.3621 Debye
        Dipole field         -0.0025 Ry au, 
 
        Potential amp.        0.2314 Ry
        Total length         46.3494 bohr
 

     total cpu time spent up to now is     2586.5 secs

     total energy              =   -3345.32569249 Ry
     estimated scf accuracy    <       6.50936122 Ry

     total magnetization       =     0.37 Bohr mag/cell
     absolute magnetization    =     0.48 Bohr mag/cell

     iteration # 32     ecut=    36.75 Ry     beta= 0.05
     Davidson diagonalization with overlap
     ethr =  4.28E-04,  avg # of iterations =  1.1

     negative rho (up, down):  1.064E-02 1.057E-02
 
     Adding external electric field

     Computed dipole along edir(3) : 
        Dipole               -1.2234 Ry au,         -3.1097 Debye
        Dipole field         -0.0023 Ry au, 
 
        Potential amp.        0.2140 Ry
        Total length         46.3494 bohr
 
 
     Adding external electric field

     Computed dipole along edir(3) : 
        Dipole               -1.2234 Ry au,         -3.1097 Debye
        Dipole field         -0.0023 Ry au, 
 
        Potential amp.        0.2140 Ry
        Total length         46.3494 bohr
 

     total cpu time spent up to now is     2634.0 secs

     total energy              =   -3345.33336304 Ry
     estimated scf accuracy    <      14.89447715 Ry

     total magnetization       =     0.76 Bohr mag/cell
     absolute magnetization    =     0.85 Bohr mag/cell

     iteration # 33     ecut=    36.75 Ry     beta= 0.05
     Davidson diagonalization with overlap
     ethr =  4.28E-04,  avg # of iterations =  1.8

     negative rho (up, down):  1.053E-02 1.056E-02
 
     Adding external electric field

     Computed dipole along edir(3) : 
        Dipole               -1.2273 Ry au,         -3.1194 Debye
        Dipole field         -0.0023 Ry au, 
 
        Potential amp.        0.2147 Ry
        Total length         46.3494 bohr
 
 
     Adding external electric field

     Computed dipole along edir(3) : 
        Dipole               -1.2273 Ry au,         -3.1194 Debye
        Dipole field         -0.0023 Ry au, 
 
        Potential amp.        0.2147 Ry
        Total length         46.3494 bohr
 

     total cpu time spent up to now is     2669.1 secs

     total energy              =   -3345.22074738 Ry
     estimated scf accuracy    <      37.77963651 Ry

     total magnetization       =     0.56 Bohr mag/cell
     absolute magnetization    =     0.95 Bohr mag/cell

     iteration # 34     ecut=    36.75 Ry     beta= 0.05
     Davidson diagonalization with overlap
     ethr =  4.28E-04,  avg # of iterations =  1.0

     negative rho (up, down):  1.049E-02 1.056E-02
 
     Adding external electric field

     Computed dipole along edir(3) : 
        Dipole               -1.0537 Ry au,         -2.6783 Debye
        Dipole field         -0.0020 Ry au, 
 
        Potential amp.        0.1843 Ry
        Total length         46.3494 bohr
 
 
     Adding external electric field

     Computed dipole along edir(3) : 
        Dipole               -1.0537 Ry au,         -2.6783 Debye
        Dipole field         -0.0020 Ry au, 
 
        Potential amp.        0.1843 Ry
        Total length         46.3494 bohr
 

     total cpu time spent up to now is     2701.1 secs

     total energy              =   -3345.26654339 Ry
     estimated scf accuracy    <       5.02741211 Ry

     total magnetization       =     0.43 Bohr mag/cell
     absolute magnetization    =     0.66 Bohr mag/cell

     iteration # 35     ecut=    36.75 Ry     beta= 0.05
     Davidson diagonalization with overlap
     ethr =  4.28E-04,  avg # of iterations =  1.0

     negative rho (up, down):  1.043E-02 1.054E-02
 
     Adding external electric field

     Computed dipole along edir(3) : 
        Dipole               -1.0688 Ry au,         -2.7167 Debye
        Dipole field         -0.0020 Ry au, 
 
        Potential amp.        0.1870 Ry
        Total length         46.3494 bohr
 
 
     Adding external electric field

     Computed dipole along edir(3) : 
        Dipole               -1.0688 Ry au,         -2.7167 Debye
        Dipole field         -0.0020 Ry au, 
 
        Potential amp.        0.1870 Ry
        Total length         46.3494 bohr
 

     total cpu time spent up to now is     2733.1 secs

     total energy              =   -3345.25118925 Ry
     estimated scf accuracy    <       3.98062916 Ry

     total magnetization       =     0.48 Bohr mag/cell
     absolute magnetization    =     0.81 Bohr mag/cell

     iteration # 36     ecut=    36.75 Ry     beta= 0.05
     Davidson diagonalization with overlap
     ethr =  4.28E-04,  avg # of iterations =  1.0

     negative rho (up, down):  1.025E-02 1.051E-02
 
     Adding external electric field

     Computed dipole along edir(3) : 
        Dipole               -0.8030 Ry au,         -2.0411 Debye
        Dipole field         -0.0015 Ry au, 
 
        Potential amp.        0.1405 Ry
        Total length         46.3494 bohr
 
 
     Adding external electric field

     Computed dipole along edir(3) : 
        Dipole               -0.8030 Ry au,         -2.0411 Debye
        Dipole field         -0.0015 Ry au, 
 
        Potential amp.        0.1405 Ry
        Total length         46.3494 bohr
 

     total cpu time spent up to now is     2765.5 secs

     total energy              =   -3345.17337207 Ry
     estimated scf accuracy    <       4.13734204 Ry

     total magnetization       =     0.55 Bohr mag/cell
     absolute magnetization    =     0.91 Bohr mag/cell

     iteration # 37     ecut=    36.75 Ry     beta= 0.05
     Davidson diagonalization with overlap
     ethr =  4.28E-04,  avg # of iterations =  4.8

     negative rho (up, down):  1.026E-02 1.049E-02
 
     Adding external electric field

     Computed dipole along edir(3) : 
        Dipole               -0.6932 Ry au,         -1.7620 Debye
        Dipole field         -0.0013 Ry au, 
 
        Potential amp.        0.1213 Ry
        Total length         46.3494 bohr
 
 
     Adding external electric field

     Computed dipole along edir(3) : 
        Dipole               -0.6932 Ry au,         -1.7620 Debye
        Dipole field         -0.0013 Ry au, 
 
        Potential amp.        0.1213 Ry
        Total length         46.3494 bohr
 

     total cpu time spent up to now is     2807.0 secs

     total energy              =   -3345.19874655 Ry
     estimated scf accuracy    <       0.33952654 Ry

     total magnetization       =     0.13 Bohr mag/cell
     absolute magnetization    =     0.40 Bohr mag/cell

     iteration # 38     ecut=    36.75 Ry     beta= 0.05
     Davidson diagonalization with overlap
     c_bands:  4 eigenvalues not converged
     c_bands:  3 eigenvalues not converged
     c_bands:  2 eigenvalues not converged
     c_bands:  3 eigenvalues not converged
     ethr =  8.62E-05,  avg # of iterations = 12.5

     negative rho (up, down):  1.011E-02 1.046E-02
 
     Adding external electric field

     Computed dipole along edir(3) : 
        Dipole               -0.6205 Ry au,         -1.5772 Debye
        Dipole field         -0.0012 Ry au, 
 
        Potential amp.        0.1085 Ry
        Total length         46.3494 bohr
 
 
     Adding external electric field

     Computed dipole along edir(3) : 
        Dipole               -0.6205 Ry au,         -1.5772 Debye
        Dipole field         -0.0012 Ry au, 
 
        Potential amp.        0.1085 Ry
        Total length         46.3494 bohr
 

     total cpu time spent up to now is     2854.3 secs

     total energy              =   -3345.20203466 Ry
     estimated scf accuracy    <       1.47265911 Ry

     total magnetization       =     1.27 Bohr mag/cell
     absolute magnetization    =     1.35 Bohr mag/cell

     iteration # 39     ecut=    36.75 Ry     beta= 0.05
     Davidson diagonalization with overlap
     ethr =  8.62E-05,  avg # of iterations =  3.9

     negative rho (up, down):  1.004E-02 1.043E-02
 
     Adding external electric field

     Computed dipole along edir(3) : 
        Dipole               -0.6318 Ry au,         -1.6060 Debye
        Dipole field         -0.0012 Ry au, 
 
        Potential amp.        0.1105 Ry
        Total length         46.3494 bohr
 
 
     Adding external electric field

     Computed dipole along edir(3) : 
        Dipole               -0.6318 Ry au,         -1.6060 Debye
        Dipole field         -0.0012 Ry au, 
 
        Potential amp.        0.1105 Ry
        Total length         46.3494 bohr
 

     total cpu time spent up to now is     2891.9 secs

     total energy              =   -3345.20575501 Ry
     estimated scf accuracy    <       0.28463139 Ry

     total magnetization       =     0.61 Bohr mag/cell
     absolute magnetization    =     0.76 Bohr mag/cell

     iteration # 40     ecut=    36.75 Ry     beta= 0.05
     Davidson diagonalization with overlap
     ethr =  7.22E-05,  avg # of iterations =  3.0

     negative rho (up, down):  9.954E-03 1.046E-02
 
     Adding external electric field

     Computed dipole along edir(3) : 
        Dipole               -0.5865 Ry au,         -1.4907 Debye
        Dipole field         -0.0011 Ry au, 
 
        Potential amp.        0.1026 Ry
        Total length         46.3494 bohr
 
 
     Adding external electric field

     Computed dipole along edir(3) : 
        Dipole               -0.5865 Ry au,         -1.4907 Debye
        Dipole field         -0.0011 Ry au, 
 
        Potential amp.        0.1026 Ry
        Total length         46.3494 bohr
 

     total cpu time spent up to now is     2928.7 secs

     total energy              =   -3345.19530943 Ry
     estimated scf accuracy    <       0.17284919 Ry

     total magnetization       =     0.93 Bohr mag/cell
     absolute magnetization    =     1.06 Bohr mag/cell

     iteration # 41     ecut=    36.75 Ry     beta= 0.05
     Davidson diagonalization with overlap
     ethr =  4.39E-05,  avg # of iterations =  5.8

     negative rho (up, down):  9.894E-03 1.043E-02
 
     Adding external electric field

     Computed dipole along edir(3) : 
        Dipole               -0.6336 Ry au,         -1.6104 Debye
        Dipole field         -0.0012 Ry au, 
 
        Potential amp.        0.1108 Ry
        Total length         46.3494 bohr
 
 
     Adding external electric field

     Computed dipole along edir(3) : 
        Dipole               -0.6336 Ry au,         -1.6104 Debye
        Dipole field         -0.0012 Ry au, 
 
        Potential amp.        0.1108 Ry
        Total length         46.3494 bohr
 

     total cpu time spent up to now is     2971.2 secs

     total energy              =   -3345.19678472 Ry
     estimated scf accuracy    <       0.81395853 Ry

     total magnetization       =     1.30 Bohr mag/cell
     absolute magnetization    =     1.51 Bohr mag/cell

     iteration # 42     ecut=    36.75 Ry     beta= 0.05
     Davidson diagonalization with overlap
     c_bands:  1 eigenvalues not converged
     ethr =  4.39E-05,  avg # of iterations =  5.9

     negative rho (up, down):  9.981E-03 1.045E-02
 
     Adding external electric field

     Computed dipole along edir(3) : 
        Dipole               -0.6893 Ry au,         -1.7521 Debye
        Dipole field         -0.0013 Ry au, 
 
        Potential amp.        0.1206 Ry
        Total length         46.3494 bohr
 
 
     Adding external electric field

     Computed dipole along edir(3) : 
        Dipole               -0.6893 Ry au,         -1.7521 Debye
        Dipole field         -0.0013 Ry au, 
 
        Potential amp.        0.1206 Ry
        Total length         46.3494 bohr
 

     total cpu time spent up to now is     3015.0 secs

     total energy              =   -3345.19452661 Ry
     estimated scf accuracy    <       0.05876351 Ry

     total magnetization       =     1.03 Bohr mag/cell
     absolute magnetization    =     1.30 Bohr mag/cell

     iteration # 43     ecut=    36.75 Ry     beta= 0.05
     Davidson diagonalization with overlap
     c_bands:  1 eigenvalues not converged
     c_bands:  1 eigenvalues not converged
     c_bands:  1 eigenvalues not converged
     c_bands:  1 eigenvalues not converged
     c_bands:  2 eigenvalues not converged
     c_bands:  2 eigenvalues not converged
     ethr =  1.49E-05,  avg # of iterations = 16.6

     negative rho (up, down):  9.970E-03 1.042E-02
 
     Adding external electric field

     Computed dipole along edir(3) : 
        Dipole               -0.6462 Ry au,         -1.6425 Debye
        Dipole field         -0.0012 Ry au, 
 
        Potential amp.        0.1130 Ry
        Total length         46.3494 bohr
 
 
     Adding external electric field

     Computed dipole along edir(3) : 
        Dipole               -0.6462 Ry au,         -1.6425 Debye
        Dipole field         -0.0012 Ry au, 
 
        Potential amp.        0.1130 Ry
        Total length         46.3494 bohr
 

     total cpu time spent up to now is     3105.4 secs

     total energy              =   -3345.19057218 Ry
     estimated scf accuracy    <       1.31844597 Ry

     total magnetization       =     0.73 Bohr mag/cell
     absolute magnetization    =     1.04 Bohr mag/cell

     iteration # 44     ecut=    36.75 Ry     beta= 0.05
     Davidson diagonalization with overlap
     c_bands:  1 eigenvalues not converged
     ethr =  1.49E-05,  avg # of iterations =  9.4

     negative rho (up, down):  9.917E-03 1.042E-02
 
     Adding external electric field

     Computed dipole along edir(3) : 
        Dipole               -0.6839 Ry au,         -1.7382 Debye
        Dipole field         -0.0013 Ry au, 
 
        Potential amp.        0.1196 Ry
        Total length         46.3494 bohr
 
 
     Adding external electric field

     Computed dipole along edir(3) : 
        Dipole               -0.6839 Ry au,         -1.7382 Debye
        Dipole field         -0.0013 Ry au, 
 
        Potential amp.        0.1196 Ry
        Total length         46.3494 bohr
 

     total cpu time spent up to now is     3212.9 secs

     total energy              =   -3345.19933517 Ry
     estimated scf accuracy    <       0.39115066 Ry

     total magnetization       =     1.61 Bohr mag/cell
     absolute magnetization    =     1.76 Bohr mag/cell

     iteration # 45     ecut=    36.75 Ry     beta= 0.05
     Davidson diagonalization with overlap
     ethr =  1.49E-05,  avg # of iterations =  2.4

     negative rho (up, down):  9.850E-03 1.042E-02
 
     Adding external electric field

     Computed dipole along edir(3) : 
        Dipole               -0.6861 Ry au,         -1.7439 Debye
        Dipole field         -0.0013 Ry au, 
 
        Potential amp.        0.1200 Ry
        Total length         46.3494 bohr
 
 
     Adding external electric field

     Computed dipole along edir(3) : 
        Dipole               -0.6861 Ry au,         -1.7439 Debye
        Dipole field         -0.0013 Ry au, 
 
        Potential amp.        0.1200 Ry
        Total length         46.3494 bohr
 

     total cpu time spent up to now is     3248.3 secs

     total energy              =   -3345.19943519 Ry
     estimated scf accuracy    <       0.14905962 Ry

     total magnetization       =     1.48 Bohr mag/cell
     absolute magnetization    =     1.74 Bohr mag/cell

     iteration # 46     ecut=    36.75 Ry     beta= 0.05
     Davidson diagonalization with overlap
     c_bands:  2 eigenvalues not converged
     ethr =  1.49E-05,  avg # of iterations =  7.2

     negative rho (up, down):  9.843E-03 1.044E-02
 
     Adding external electric field

     Computed dipole along edir(3) : 
        Dipole               -0.6413 Ry au,         -1.6301 Debye
        Dipole field         -0.0012 Ry au, 
 
        Potential amp.        0.1122 Ry
        Total length         46.3494 bohr
 
 
     Adding external electric field

     Computed dipole along edir(3) : 
        Dipole               -0.6413 Ry au,         -1.6301 Debye
        Dipole field         -0.0012 Ry au, 
 
        Potential amp.        0.1122 Ry
        Total length         46.3494 bohr
 

     total cpu time spent up to now is     3287.7 secs

     total energy              =   -3345.20106406 Ry
     estimated scf accuracy    <       0.06324312 Ry

     total magnetization       =     1.46 Bohr mag/cell
     absolute magnetization    =     1.68 Bohr mag/cell

     iteration # 47     ecut=    36.75 Ry     beta= 0.05
     Davidson diagonalization with overlap
     ethr =  1.49E-05,  avg # of iterations =  1.2

     negative rho (up, down):  9.945E-03 1.063E-02
 
     Adding external electric field

     Computed dipole along edir(3) : 
        Dipole               -0.4741 Ry au,         -1.2050 Debye
        Dipole field         -0.0009 Ry au, 
 
        Potential amp.        0.0829 Ry
        Total length         46.3494 bohr
 
 
     Adding external electric field

     Computed dipole along edir(3) : 
        Dipole               -0.4741 Ry au,         -1.2050 Debye
        Dipole field         -0.0009 Ry au, 
 
        Potential amp.        0.0829 Ry
        Total length         46.3494 bohr
 

     total cpu time spent up to now is     3320.2 secs

     total energy              =   -3345.20098522 Ry
     estimated scf accuracy    <       0.03644857 Ry

     total magnetization       =     1.38 Bohr mag/cell
     absolute magnetization    =     1.63 Bohr mag/cell

     iteration # 48     ecut=    36.75 Ry     beta= 0.05
     Davidson diagonalization with overlap
     c_bands:  2 eigenvalues not converged
     c_bands:  2 eigenvalues not converged
     c_bands:  1 eigenvalues not converged
     c_bands:  1 eigenvalues not converged
     c_bands:  1 eigenvalues not converged
     c_bands:  1 eigenvalues not converged
     c_bands:  1 eigenvalues not converged
     ethr =  9.25E-06,  avg # of iterations = 14.7

     negative rho (up, down):  9.913E-03 1.059E-02
 
     Adding external electric field

     Computed dipole along edir(3) : 
        Dipole               -0.5096 Ry au,         -1.2952 Debye
        Dipole field         -0.0010 Ry au, 
 
        Potential amp.        0.0891 Ry
        Total length         46.3494 bohr
 
 
     Adding external electric field

     Computed dipole along edir(3) : 
        Dipole               -0.5096 Ry au,         -1.2952 Debye
        Dipole field         -0.0010 Ry au, 
 
        Potential amp.        0.0891 Ry
        Total length         46.3494 bohr
 

     total cpu time spent up to now is     3370.9 secs

     total energy              =   -3345.20361562 Ry
     estimated scf accuracy    <       0.06002174 Ry

     total magnetization       =     0.88 Bohr mag/cell
     absolute magnetization    =     1.30 Bohr mag/cell

     iteration # 49     ecut=    36.75 Ry     beta= 0.05
     Davidson diagonalization with overlap
     ethr =  9.25E-06,  avg # of iterations =  3.5

     negative rho (up, down):  9.867E-03 1.053E-02
 
     Adding external electric field

     Computed dipole along edir(3) : 
        Dipole               -0.5178 Ry au,         -1.3162 Debye
        Dipole field         -0.0010 Ry au, 
 
        Potential amp.        0.0906 Ry
        Total length         46.3494 bohr
 
 
     Adding external electric field

     Computed dipole along edir(3) : 
        Dipole               -0.5178 Ry au,         -1.3162 Debye
        Dipole field         -0.0010 Ry au, 
 
        Potential amp.        0.0906 Ry
        Total length         46.3494 bohr
 

     total cpu time spent up to now is     3411.2 secs

     total energy              =   -3345.20397403 Ry
     estimated scf accuracy    <       0.03383655 Ry

     total magnetization       =     0.99 Bohr mag/cell
     absolute magnetization    =     1.40 Bohr mag/cell

     iteration # 50     ecut=    36.75 Ry     beta= 0.05
     Davidson diagonalization with overlap
     ethr =  8.59E-06,  avg # of iterations =  1.1

     negative rho (up, down):  9.854E-03 1.049E-02
 
     Adding external electric field

     Computed dipole along edir(3) : 
        Dipole               -0.5471 Ry au,         -1.3905 Debye
        Dipole field         -0.0010 Ry au, 
 
        Potential amp.        0.0957 Ry
        Total length         46.3494 bohr
 
 
     Adding external electric field

     Computed dipole along edir(3) : 
        Dipole               -0.5471 Ry au,         -1.3905 Debye
        Dipole field         -0.0010 Ry au, 
 
        Potential amp.        0.0957 Ry
        Total length         46.3494 bohr
 

     total cpu time spent up to now is     3443.8 secs

     total energy              =   -3345.20382981 Ry
     estimated scf accuracy    <       0.03014438 Ry

     total magnetization       =     0.98 Bohr mag/cell
     absolute magnetization    =     1.40 Bohr mag/cell

     iteration # 51     ecut=    36.75 Ry     beta= 0.05
     Davidson diagonalization with overlap
     ethr =  7.65E-06,  avg # of iterations =  5.0

     negative rho (up, down):  9.837E-03 1.046E-02
 
     Adding external electric field

     Computed dipole along edir(3) : 
        Dipole               -0.5569 Ry au,         -1.4156 Debye
        Dipole field         -0.0011 Ry au, 
 
        Potential amp.        0.0974 Ry
        Total length         46.3494 bohr
 
 
     Adding external electric field

     Computed dipole along edir(3) : 
        Dipole               -0.5569 Ry au,         -1.4156 Debye
        Dipole field         -0.0011 Ry au, 
 
        Potential amp.        0.0974 Ry
        Total length         46.3494 bohr
 

     total cpu time spent up to now is     3481.9 secs

     total energy              =   -3345.20508015 Ry
     estimated scf accuracy    <       0.00833688 Ry

     total magnetization       =     1.12 Bohr mag/cell
     absolute magnetization    =     1.51 Bohr mag/cell

     iteration # 52     ecut=    36.75 Ry     beta= 0.05
     Davidson diagonalization with overlap
     c_bands:  2 eigenvalues not converged
     c_bands:  3 eigenvalues not converged
     ethr =  2.12E-06,  avg # of iterations = 12.8

     negative rho (up, down):  9.851E-03 1.047E-02
 
     Adding external electric field

     Computed dipole along edir(3) : 
        Dipole               -0.5407 Ry au,         -1.3744 Debye
        Dipole field         -0.0010 Ry au, 
 
        Potential amp.        0.0946 Ry
        Total length         46.3494 bohr
 
 
     Adding external electric field

     Computed dipole along edir(3) : 
        Dipole               -0.5407 Ry au,         -1.3744 Debye
        Dipole field         -0.0010 Ry au, 
 
        Potential amp.        0.0946 Ry
        Total length         46.3494 bohr
 

     total cpu time spent up to now is     3547.7 secs

     total energy              =   -3345.20568925 Ry
     estimated scf accuracy    <       0.01224517 Ry

     total magnetization       =     1.37 Bohr mag/cell
     absolute magnetization    =     1.65 Bohr mag/cell

     iteration # 53     ecut=    36.75 Ry     beta= 0.05
     Davidson diagonalization with overlap
     c_bands:  3 eigenvalues not converged
     ethr =  2.12E-06,  avg # of iterations =  2.5

     negative rho (up, down):  1.008E-02 1.073E-02
 
     Adding external electric field

     Computed dipole along edir(3) : 
        Dipole               -0.5172 Ry au,         -1.3146 Debye
        Dipole field         -0.0010 Ry au, 
 
        Potential amp.        0.0905 Ry
        Total length         46.3494 bohr
 
 
     Adding external electric field

     Computed dipole along edir(3) : 
        Dipole               -0.5172 Ry au,         -1.3146 Debye
        Dipole field         -0.0010 Ry au, 
 
        Potential amp.        0.0905 Ry
        Total length         46.3494 bohr
 

     total cpu time spent up to now is     3595.0 secs

     total energy              =   -3345.20658249 Ry
     estimated scf accuracy    <       0.01096466 Ry

     total magnetization       =     1.37 Bohr mag/cell
     absolute magnetization    =     1.66 Bohr mag/cell

     iteration # 54     ecut=    36.75 Ry     beta= 0.05
     Davidson diagonalization with overlap
     c_bands:  1 eigenvalues not converged
     ethr =  2.12E-06,  avg # of iterations =  3.2

     negative rho (up, down):  1.048E-02 1.114E-02
 
     Adding external electric field

     Computed dipole along edir(3) : 
        Dipole               -0.4744 Ry au,         -1.2058 Debye
        Dipole field         -0.0009 Ry au, 
 
        Potential amp.        0.0830 Ry
        Total length         46.3494 bohr
 
 
     Adding external electric field

     Computed dipole along edir(3) : 
        Dipole               -0.4744 Ry au,         -1.2058 Debye
        Dipole field         -0.0009 Ry au, 
 
        Potential amp.        0.0830 Ry
        Total length         46.3494 bohr
 

     total cpu time spent up to now is     3668.5 secs

     total energy              =   -3345.20657447 Ry
     estimated scf accuracy    <       0.01040326 Ry

     total magnetization       =     1.28 Bohr mag/cell
     absolute magnetization    =     1.61 Bohr mag/cell

     iteration # 55     ecut=    36.75 Ry     beta= 0.05
     Davidson diagonalization with overlap
     ethr =  2.12E-06,  avg # of iterations =  4.0

     negative rho (up, down):  1.108E-02 1.177E-02
 
     Adding external electric field

     Computed dipole along edir(3) : 
        Dipole               -0.4370 Ry au,         -1.1108 Debye
        Dipole field         -0.0008 Ry au, 
 
        Potential amp.        0.0764 Ry
        Total length         46.3494 bohr
 
 
     Adding external electric field

     Computed dipole along edir(3) : 
        Dipole               -0.4370 Ry au,         -1.1108 Debye
        Dipole field         -0.0008 Ry au, 
 
        Potential amp.        0.0764 Ry
        Total length         46.3494 bohr
 

     total cpu time spent up to now is     3705.0 secs

     total energy              =   -3345.20685731 Ry
     estimated scf accuracy    <       0.00501190 Ry

     total magnetization       =     1.33 Bohr mag/cell
     absolute magnetization    =     1.68 Bohr mag/cell

     iteration # 56     ecut=    36.75 Ry     beta= 0.05
     Davidson diagonalization with overlap
     c_bands:  2 eigenvalues not converged
     ethr =  1.27E-06,  avg # of iterations =  7.4

     negative rho (up, down):  1.075E-02 1.143E-02
 
     Adding external electric field

     Computed dipole along edir(3) : 
        Dipole               -0.4468 Ry au,         -1.1357 Debye
        Dipole field         -0.0008 Ry au, 
 
        Potential amp.        0.0782 Ry
        Total length         46.3494 bohr
 
 
     Adding external electric field

     Computed dipole along edir(3) : 
        Dipole               -0.4468 Ry au,         -1.1357 Debye
        Dipole field         -0.0008 Ry au, 
 
        Potential amp.        0.0782 Ry
        Total length         46.3494 bohr
 

     total cpu time spent up to now is     3746.2 secs

     total energy              =   -3345.20706862 Ry
     estimated scf accuracy    <       0.00208770 Ry

     total magnetization       =     1.36 Bohr mag/cell
     absolute magnetization    =     1.74 Bohr mag/cell

     iteration # 57     ecut=    36.75 Ry     beta= 0.05
     Davidson diagonalization with overlap
     ethr =  5.30E-07,  avg # of iterations =  2.3

     negative rho (up, down):  1.064E-02 1.131E-02
 
     Adding external electric field

     Computed dipole along edir(3) : 
        Dipole               -0.4279 Ry au,         -1.0877 Debye
        Dipole field         -0.0008 Ry au, 
 
        Potential amp.        0.0749 Ry
        Total length         46.3494 bohr
 
 
     Adding external electric field

     Computed dipole along edir(3) : 
        Dipole               -0.4279 Ry au,         -1.0877 Debye
        Dipole field         -0.0008 Ry au, 
 
        Potential amp.        0.0749 Ry
        Total length         46.3494 bohr
 

     total cpu time spent up to now is     3780.3 secs

     total energy              =   -3345.20748877 Ry
     estimated scf accuracy    <       0.00143172 Ry

     total magnetization       =     1.35 Bohr mag/cell
     absolute magnetization    =     1.72 Bohr mag/cell

     iteration # 58     ecut=    36.75 Ry     beta= 0.05
     Davidson diagonalization with overlap
     ethr =  3.63E-07,  avg # of iterations =  6.8

     negative rho (up, down):  1.080E-02 1.147E-02
 
     Adding external electric field

     Computed dipole along edir(3) : 
        Dipole               -0.4049 Ry au,         -1.0293 Debye
        Dipole field         -0.0008 Ry au, 
 
        Potential amp.        0.0708 Ry
        Total length         46.3494 bohr
 
 
     Adding external electric field

     Computed dipole along edir(3) : 
        Dipole               -0.4049 Ry au,         -1.0293 Debye
        Dipole field         -0.0008 Ry au, 
 
        Potential amp.        0.0708 Ry
        Total length         46.3494 bohr
 

     total cpu time spent up to now is     3819.7 secs

     total energy              =   -3345.20803945 Ry
     estimated scf accuracy    <       0.00131094 Ry

     total magnetization       =     1.36 Bohr mag/cell
     absolute magnetization    =     1.75 Bohr mag/cell

     iteration # 59     ecut=    36.75 Ry     beta= 0.05
     Davidson diagonalization with overlap
     ethr =  3.33E-07,  avg # of iterations =  7.8

     negative rho (up, down):  1.069E-02 1.136E-02
 
     Adding external electric field

     Computed dipole along edir(3) : 
        Dipole               -0.4057 Ry au,         -1.0311 Debye
        Dipole field         -0.0008 Ry au, 
 
        Potential amp.        0.0710 Ry
        Total length         46.3494 bohr
 
 
     Adding external electric field

     Computed dipole along edir(3) : 
        Dipole               -0.4057 Ry au,         -1.0311 Debye
        Dipole field         -0.0008 Ry au, 
 
        Potential amp.        0.0710 Ry
        Total length         46.3494 bohr
 

     total cpu time spent up to now is     3864.4 secs

     total energy              =   -3345.20822182 Ry
     estimated scf accuracy    <       0.00149764 Ry

     total magnetization       =     1.36 Bohr mag/cell
     absolute magnetization    =     1.77 Bohr mag/cell

     iteration # 60     ecut=    36.75 Ry     beta= 0.05
     Davidson diagonalization with overlap
     ethr =  3.33E-07,  avg # of iterations =  1.4

     negative rho (up, down):  1.079E-02 1.146E-02
 
     Adding external electric field

     Computed dipole along edir(3) : 
        Dipole               -0.4048 Ry au,         -1.0289 Debye
        Dipole field         -0.0008 Ry au, 
 
        Potential amp.        0.0708 Ry
        Total length         46.3494 bohr
 
 
     Adding external electric field

     Computed dipole along edir(3) : 
        Dipole               -0.4048 Ry au,         -1.0289 Debye
        Dipole field         -0.0008 Ry au, 
 
        Potential amp.        0.0708 Ry
        Total length         46.3494 bohr
 

     total cpu time spent up to now is     3896.9 secs

     total energy              =   -3345.20833020 Ry
     estimated scf accuracy    <       0.00066631 Ry

     total magnetization       =     1.39 Bohr mag/cell
     absolute magnetization    =     1.80 Bohr mag/cell

     iteration # 61     ecut=    36.75 Ry     beta= 0.05
     Davidson diagonalization with overlap
     ethr =  1.69E-07,  avg # of iterations =  6.2

     negative rho (up, down):  1.078E-02 1.145E-02
 
     Adding external electric field

     Computed dipole along edir(3) : 
        Dipole               -0.4024 Ry au,         -1.0229 Debye
        Dipole field         -0.0008 Ry au, 
 
        Potential amp.        0.0704 Ry
        Total length         46.3494 bohr
 
 
     Adding external electric field

     Computed dipole along edir(3) : 
        Dipole               -0.4024 Ry au,         -1.0229 Debye
        Dipole field         -0.0008 Ry au, 
 
        Potential amp.        0.0704 Ry
        Total length         46.3494 bohr
 

     total cpu time spent up to now is     3936.0 secs

     total energy              =   -3345.20835081 Ry
     estimated scf accuracy    <       0.00059899 Ry

     total magnetization       =     1.42 Bohr mag/cell
     absolute magnetization    =     1.83 Bohr mag/cell

     iteration # 62     ecut=    36.75 Ry     beta= 0.05
     Davidson diagonalization with overlap
     ethr =  1.52E-07,  avg # of iterations =  2.0

     negative rho (up, down):  1.077E-02 1.145E-02
 
     Adding external electric field

     Computed dipole along edir(3) : 
        Dipole               -0.4036 Ry au,         -1.0259 Debye
        Dipole field         -0.0008 Ry au, 
 
        Potential amp.        0.0706 Ry
        Total length         46.3494 bohr
 
 
     Adding external electric field

     Computed dipole along edir(3) : 
        Dipole               -0.4036 Ry au,         -1.0259 Debye
        Dipole field         -0.0008 Ry au, 
 
        Potential amp.        0.0706 Ry
        Total length         46.3494 bohr
 

     total cpu time spent up to now is     3971.8 secs

     total energy              =   -3345.20832709 Ry
     estimated scf accuracy    <       0.00064225 Ry

     total magnetization       =     1.42 Bohr mag/cell
     absolute magnetization    =     1.83 Bohr mag/cell

     iteration # 63     ecut=    36.75 Ry     beta= 0.05
     Davidson diagonalization with overlap
     ethr =  1.52E-07,  avg # of iterations =  5.0

     negative rho (up, down):  1.056E-02 1.123E-02
 
     Adding external electric field

     Computed dipole along edir(3) : 
[...]
 
        Potential amp.        0.0710 Ry
        Total length         46.3494 bohr
 

     total cpu time spent up to now is    40889.9 secs

     total energy              =   -3345.21080005 Ry
     estimated scf accuracy    <       0.00008939 Ry

     total magnetization       =     1.22 Bohr mag/cell
     absolute magnetization    =     1.80 Bohr mag/cell

     iteration #322     ecut=    36.75 Ry     beta= 0.05
     Davidson diagonalization with overlap
     ethr =  7.36E-10,  avg # of iterations =  4.8

     negative rho (up, down):  1.049E-02 1.105E-02
 
     Adding external electric field

     Computed dipole along edir(3) : 
        Dipole               -0.4038 Ry au,         -1.0264 Debye
        Dipole field         -0.0008 Ry au, 
 
        Potential amp.        0.0706 Ry
        Total length         46.3494 bohr
 
 
     Adding external electric field

     Computed dipole along edir(3) : 
        Dipole               -0.4038 Ry au,         -1.0264 Debye
        Dipole field         -0.0008 Ry au, 
 
        Potential amp.        0.0706 Ry
        Total length         46.3494 bohr
 

     total cpu time spent up to now is    40928.5 secs

     total energy              =   -3345.21075000 Ry
     estimated scf accuracy    <       0.00009142 Ry

     total magnetization       =     1.22 Bohr mag/cell
     absolute magnetization    =     1.80 Bohr mag/cell

     iteration #323     ecut=    36.75 Ry     beta= 0.05
     Davidson diagonalization with overlap
     ethr =  7.36E-10,  avg # of iterations = 12.2

     negative rho (up, down):  1.050E-02 1.103E-02
 
     Adding external electric field

     Computed dipole along edir(3) : 
        Dipole               -0.4046 Ry au,         -1.0284 Debye
        Dipole field         -0.0008 Ry au, 
 
        Potential amp.        0.0708 Ry
        Total length         46.3494 bohr
 
 
     Adding external electric field

     Computed dipole along edir(3) : 
        Dipole               -0.4046 Ry au,         -1.0284 Debye
        Dipole field         -0.0008 Ry au, 
 
        Potential amp.        0.0708 Ry
        Total length         46.3494 bohr
 

     total cpu time spent up to now is    40999.6 secs

     total energy              =   -3345.21078325 Ry
     estimated scf accuracy    <       0.00018130 Ry

     total magnetization       =     1.27 Bohr mag/cell
     absolute magnetization    =     1.85 Bohr mag/cell

     iteration #324     ecut=    36.75 Ry     beta= 0.05
     Davidson diagonalization with overlap
     ethr =  7.36E-10,  avg # of iterations =  7.2

     negative rho (up, down):  1.049E-02 1.104E-02
 
     Adding external electric field

     Computed dipole along edir(3) : 
        Dipole               -0.4043 Ry au,         -1.0277 Debye
        Dipole field         -0.0008 Ry au, 
 
        Potential amp.        0.0707 Ry
        Total length         46.3494 bohr
 
 
     Adding external electric field

     Computed dipole along edir(3) : 
        Dipole               -0.4043 Ry au,         -1.0277 Debye
        Dipole field         -0.0008 Ry au, 
 
        Potential amp.        0.0707 Ry
        Total length         46.3494 bohr
 

     total cpu time spent up to now is    41046.7 secs

     total energy              =   -3345.21078439 Ry
     estimated scf accuracy    <       0.00013068 Ry

     total magnetization       =     1.25 Bohr mag/cell
     absolute magnetization    =     1.83 Bohr mag/cell

     iteration #325     ecut=    36.75 Ry     beta= 0.05
     Davidson diagonalization with overlap
     ethr =  7.36E-10,  avg # of iterations =  2.5

     negative rho (up, down):  1.060E-02 1.093E-02
 
     Adding external electric field

     Computed dipole along edir(3) : 
        Dipole               -0.4105 Ry au,         -1.0433 Debye
        Dipole field         -0.0008 Ry au, 
 
        Potential amp.        0.0718 Ry
        Total length         46.3494 bohr
 
 
     Adding external electric field

     Computed dipole along edir(3) : 
        Dipole               -0.4105 Ry au,         -1.0433 Debye
        Dipole field         -0.0008 Ry au, 
 
        Potential amp.        0.0718 Ry
        Total length         46.3494 bohr
 

     total cpu time spent up to now is    41081.4 secs

     total energy              =   -3345.21059140 Ry
     estimated scf accuracy    <       0.00013639 Ry

     total magnetization       =     1.26 Bohr mag/cell
     absolute magnetization    =     1.83 Bohr mag/cell

     iteration #326     ecut=    36.75 Ry     beta= 0.05
     Davidson diagonalization with overlap
     c_bands:  1 eigenvalues not converged
     c_bands:  1 eigenvalues not converged
     c_bands:  1 eigenvalues not converged
     c_bands:  1 eigenvalues not converged
     ethr =  7.36E-10,  avg # of iterations = 16.8

     negative rho (up, down):  1.050E-02 1.103E-02
 
     Adding external electric field

     Computed dipole along edir(3) : 
        Dipole               -0.4050 Ry au,         -1.0293 Debye
        Dipole field         -0.0008 Ry au, 
 
        Potential amp.        0.0708 Ry
        Total length         46.3494 bohr
 
 
     Adding external electric field

     Computed dipole along edir(3) : 
        Dipole               -0.4050 Ry au,         -1.0293 Debye
        Dipole field         -0.0008 Ry au, 
 
        Potential amp.        0.0708 Ry
        Total length         46.3494 bohr
 

     total cpu time spent up to now is    41205.8 secs

     total energy              =   -3345.21048529 Ry
     estimated scf accuracy    <       0.00092918 Ry

     total magnetization       =     1.07 Bohr mag/cell
     absolute magnetization    =     1.76 Bohr mag/cell

     iteration #327     ecut=    36.75 Ry     beta= 0.05
     Davidson diagonalization with overlap
     c_bands:  1 eigenvalues not converged
     c_bands:  1 eigenvalues not converged
     c_bands:  1 eigenvalues not converged
     c_bands:  1 eigenvalues not converged
     c_bands:  1 eigenvalues not converged
     c_bands:  1 eigenvalues not converged
     ethr =  7.36E-10,  avg # of iterations = 17.5

     negative rho (up, down):  1.050E-02 1.103E-02
 
     Adding external electric field

     Computed dipole along edir(3) : 
        Dipole               -0.4048 Ry au,         -1.0290 Debye
        Dipole field         -0.0008 Ry au, 
 
        Potential amp.        0.0708 Ry
        Total length         46.3494 bohr
 
 
     Adding external electric field

     Computed dipole along edir(3) : 
        Dipole               -0.4048 Ry au,         -1.0290 Debye
        Dipole field         -0.0008 Ry au, 
 
        Potential amp.        0.0708 Ry
        Total length         46.3494 bohr
 

     total cpu time spent up to now is    41308.6 secs

     total energy              =   -3345.21079219 Ry
     estimated scf accuracy    <       0.00010699 Ry

     total magnetization       =     1.24 Bohr mag/cell
     absolute magnetization    =     1.82 Bohr mag/cell

     iteration #328     ecut=    36.75 Ry     beta= 0.05
     Davidson diagonalization with overlap
     ethr =  7.36E-10,  avg # of iterations =  2.0

     negative rho (up, down):  1.050E-02 1.103E-02
 
     Adding external electric field

     Computed dipole along edir(3) : 
        Dipole               -0.4049 Ry au,         -1.0291 Debye
        Dipole field         -0.0008 Ry au, 
 
        Potential amp.        0.0708 Ry
        Total length         46.3494 bohr
 
 
     Adding external electric field

     Computed dipole along edir(3) : 
        Dipole               -0.4049 Ry au,         -1.0291 Debye
        Dipole field         -0.0008 Ry au, 
 
        Potential amp.        0.0708 Ry
        Total length         46.3494 bohr
 

     total cpu time spent up to now is    41341.7 secs

     total energy              =   -3345.21079271 Ry
     estimated scf accuracy    <       0.00010854 Ry

     total magnetization       =     1.24 Bohr mag/cell
     absolute magnetization    =     1.82 Bohr mag/cell

     iteration #329     ecut=    36.75 Ry     beta= 0.05
     Davidson diagonalization with overlap
     ethr =  7.36E-10,  avg # of iterations =  1.0

     negative rho (up, down):  1.050E-02 1.103E-02
 
     Adding external electric field

     Computed dipole along edir(3) : 
        Dipole               -0.4047 Ry au,         -1.0287 Debye
        Dipole field         -0.0008 Ry au, 
 
        Potential amp.        0.0708 Ry
        Total length         46.3494 bohr
 
 
     Adding external electric field

     Computed dipole along edir(3) : 
        Dipole               -0.4047 Ry au,         -1.0287 Debye
        Dipole field         -0.0008 Ry au, 
 
        Potential amp.        0.0708 Ry
        Total length         46.3494 bohr
 

     total cpu time spent up to now is    41413.0 secs

     total energy              =   -3345.21079097 Ry
     estimated scf accuracy    <       0.00010724 Ry

     total magnetization       =     1.24 Bohr mag/cell
     absolute magnetization    =     1.82 Bohr mag/cell

     iteration #330     ecut=    36.75 Ry     beta= 0.05
     Davidson diagonalization with overlap
     ethr =  7.36E-10,  avg # of iterations =  2.5

     negative rho (up, down):  1.049E-02 1.104E-02
 
     Adding external electric field

     Computed dipole along edir(3) : 
        Dipole               -0.4042 Ry au,         -1.0274 Debye
        Dipole field         -0.0008 Ry au, 
 
        Potential amp.        0.0707 Ry
        Total length         46.3494 bohr
 
 
     Adding external electric field

     Computed dipole along edir(3) : 
        Dipole               -0.4042 Ry au,         -1.0274 Debye
        Dipole field         -0.0008 Ry au, 
 
        Potential amp.        0.0707 Ry
        Total length         46.3494 bohr
 

     total cpu time spent up to now is    41502.1 secs

     total energy              =   -3345.21078228 Ry
     estimated scf accuracy    <       0.00011138 Ry

     total magnetization       =     1.25 Bohr mag/cell
     absolute magnetization    =     1.82 Bohr mag/cell

     iteration #331     ecut=    36.75 Ry     beta= 0.05
     Davidson diagonalization with overlap
     ethr =  7.36E-10,  avg # of iterations =  7.7

     negative rho (up, down):  1.047E-02 1.106E-02
 
     Adding external electric field

     Computed dipole along edir(3) : 
        Dipole               -0.4031 Ry au,         -1.0246 Debye
        Dipole field         -0.0008 Ry au, 
 
        Potential amp.        0.0705 Ry
        Total length         46.3494 bohr
 
 
     Adding external electric field

     Computed dipole along edir(3) : 
        Dipole               -0.4031 Ry au,         -1.0246 Debye
        Dipole field         -0.0008 Ry au, 
 
        Potential amp.        0.0705 Ry
        Total length         46.3494 bohr
 

     total cpu time spent up to now is    41548.0 secs

     total energy              =   -3345.21076049 Ry
     estimated scf accuracy    <       0.00013626 Ry

     total magnetization       =     1.26 Bohr mag/cell
     absolute magnetization    =     1.84 Bohr mag/cell

     iteration #332     ecut=    36.75 Ry     beta= 0.05
     Davidson diagonalization with overlap
     ethr =  7.36E-10,  avg # of iterations = 10.1

     negative rho (up, down):  1.047E-02 1.107E-02
 
     Adding external electric field

     Computed dipole along edir(3) : 
        Dipole               -0.4028 Ry au,         -1.0238 Debye
        Dipole field         -0.0008 Ry au, 
 
        Potential amp.        0.0705 Ry
        Total length         46.3494 bohr
 
 
     Adding external electric field

     Computed dipole along edir(3) : 
        Dipole               -0.4028 Ry au,         -1.0238 Debye
        Dipole field         -0.0008 Ry au, 
 
        Potential amp.        0.0705 Ry
        Total length         46.3494 bohr
 

     total cpu time spent up to now is    41605.8 secs

     total energy              =   -3345.21076046 Ry
     estimated scf accuracy    <       0.00022843 Ry

     total magnetization       =     1.28 Bohr mag/cell
     absolute magnetization    =     1.86 Bohr mag/cell

     iteration #333     ecut=    36.75 Ry     beta= 0.05
     Davidson diagonalization with overlap
     ethr =  7.36E-10,  avg # of iterations =  6.3

     negative rho (up, down):  1.048E-02 1.105E-02
 
     Adding external electric field

     Computed dipole along edir(3) : 
        Dipole               -0.4036 Ry au,         -1.0259 Debye
        Dipole field         -0.0008 Ry au, 
 
        Potential amp.        0.0706 Ry
        Total length         46.3494 bohr
 
 
     Adding external electric field

     Computed dipole along edir(3) : 
        Dipole               -0.4036 Ry au,         -1.0259 Debye
        Dipole field         -0.0008 Ry au, 
 
        Potential amp.        0.0706 Ry
        Total length         46.3494 bohr
 

     total cpu time spent up to now is    41645.7 secs

     total energy              =   -3345.21077190 Ry
     estimated scf accuracy    <       0.00027004 Ry

     total magnetization       =     1.29 Bohr mag/cell
     absolute magnetization    =     1.87 Bohr mag/cell

     iteration #334     ecut=    36.75 Ry     beta= 0.05
     Davidson diagonalization with overlap
     ethr =  7.36E-10,  avg # of iterations =  7.1

     negative rho (up, down):  1.048E-02 1.105E-02
 
     Adding external electric field

     Computed dipole along edir(3) : 
        Dipole               -0.4036 Ry au,         -1.0259 Debye
        Dipole field         -0.0008 Ry au, 
 
        Potential amp.        0.0706 Ry
        Total length         46.3494 bohr
 
 
     Adding external electric field

     Computed dipole along edir(3) : 
        Dipole               -0.4036 Ry au,         -1.0259 Debye
        Dipole field         -0.0008 Ry au, 
 
        Potential amp.        0.0706 Ry
        Total length         46.3494 bohr
 

     total cpu time spent up to now is    41773.5 secs

     total energy              =   -3345.21077478 Ry
     estimated scf accuracy    <       0.00018085 Ry

     total magnetization       =     1.27 Bohr mag/cell
     absolute magnetization    =     1.85 Bohr mag/cell

     iteration #335     ecut=    36.75 Ry     beta= 0.05
     Davidson diagonalization with overlap
     ethr =  7.36E-10,  avg # of iterations =  1.0

     negative rho (up, down):  1.060E-02 1.094E-02
 
     Adding external electric field

     Computed dipole along edir(3) : 
        Dipole               -0.4103 Ry au,         -1.0429 Debye
        Dipole field         -0.0008 Ry au, 
 
        Potential amp.        0.0718 Ry
        Total length         46.3494 bohr
 
 
     Adding external electric field

     Computed dipole along edir(3) : 
        Dipole               -0.4103 Ry au,         -1.0429 Debye
        Dipole field         -0.0008 Ry au, 
 
        Potential amp.        0.0718 Ry
        Total length         46.3494 bohr
 

     total cpu time spent up to now is    41877.9 secs

     total energy              =   -3345.21055964 Ry
     estimated scf accuracy    <       0.00018291 Ry

     total magnetization       =     1.27 Bohr mag/cell
     absolute magnetization    =     1.85 Bohr mag/cell

     iteration #336     ecut=    36.75 Ry     beta= 0.05
     Davidson diagonalization with overlap
     c_bands:  1 eigenvalues not converged
     c_bands:  1 eigenvalues not converged
     c_bands:  1 eigenvalues not converged
     c_bands:  1 eigenvalues not converged
     c_bands:  1 eigenvalues not converged
     ethr =  7.36E-10,  avg # of iterations = 16.9

     negative rho (up, down):  1.045E-02 1.109E-02
 
     Adding external electric field

     Computed dipole along edir(3) : 
        Dipole               -0.4018 Ry au,         -1.0214 Debye
        Dipole field         -0.0008 Ry au, 
 
        Potential amp.        0.0703 Ry
        Total length         46.3494 bohr
 
 
     Adding external electric field

     Computed dipole along edir(3) : 
        Dipole               -0.4018 Ry au,         -1.0214 Debye
        Dipole field         -0.0008 Ry au, 
 
        Potential amp.        0.0703 Ry
        Total length         46.3494 bohr
 

     total cpu time spent up to now is    41974.4 secs

     total energy              =   -3345.21010777 Ry
     estimated scf accuracy    <       0.00079429 Ry

     total magnetization       =     1.08 Bohr mag/cell
     absolute magnetization    =     1.76 Bohr mag/cell

     iteration #337     ecut=    36.75 Ry     beta= 0.05
     Davidson diagonalization with overlap
     c_bands:  1 eigenvalues not converged
     c_bands:  1 eigenvalues not converged
     c_bands:  1 eigenvalues not converged
     c_bands:  1 eigenvalues not converged
     c_bands:  1 eigenvalues not converged
     c_bands:  1 eigenvalues not converged
     c_bands:  1 eigenvalues not converged
     c_bands:  1 eigenvalues not converged
     ethr =  7.36E-10,  avg # of iterations = 17.8

     negative rho (up, down):  1.045E-02 1.109E-02
 
     Adding external electric field

     Computed dipole along edir(3) : 
        Dipole               -0.4016 Ry au,         -1.0206 Debye
        Dipole field         -0.0008 Ry au, 
 
        Potential amp.        0.0702 Ry
        Total length         46.3494 bohr
 
 
     Adding external electric field

     Computed dipole along edir(3) : 
        Dipole               -0.4016 Ry au,         -1.0206 Debye
        Dipole field         -0.0008 Ry au, 
 
        Potential amp.        0.0702 Ry
        Total length         46.3494 bohr
 

     total cpu time spent up to now is    44589.7 secs

     total energy              =   -3345.21073350 Ry
     estimated scf accuracy    <       0.00042612 Ry

     total magnetization       =     1.31 Bohr mag/cell
     absolute magnetization    =     1.89 Bohr mag/cell

     iteration #338     ecut=    36.75 Ry     beta= 0.05
     Davidson diagonalization with overlap
     ethr =  7.36E-10,  avg # of iterations =  5.7

     negative rho (up, down):  1.045E-02 1.109E-02
 
     Adding external electric field

     Computed dipole along edir(3) : 
        Dipole               -0.4017 Ry au,         -1.0209 Debye
        Dipole field         -0.0008 Ry au, 
 
        Potential amp.        0.0703 Ry
        Total length         46.3494 bohr
 
 
     Adding external electric field

     Computed dipole along edir(3) : 
        Dipole               -0.4017 Ry au,         -1.0209 Debye
        Dipole field         -0.0008 Ry au, 
 
        Potential amp.        0.0703 Ry
        Total length         46.3494 bohr
 

     total cpu time spent up to now is    48154.6 secs

     total energy              =   -3345.21073661 Ry
     estimated scf accuracy    <       0.00048141 Ry

     total magnetization       =     1.31 Bohr mag/cell
     absolute magnetization    =     1.89 Bohr mag/cell

     iteration #339     ecut=    36.75 Ry     beta= 0.05
     Davidson diagonalization with overlap
     ethr =  7.36E-10,  avg # of iterations =  1.1

     negative rho (up, down):  1.045E-02 1.109E-02
 
     Adding external electric field

     Computed dipole along edir(3) : 
        Dipole               -0.4015 Ry au,         -1.0205 Debye
        Dipole field         -0.0008 Ry au, 
 
        Potential amp.        0.0702 Ry
        Total length         46.3494 bohr
 
 
     Adding external electric field

     Computed dipole along edir(3) : 
        Dipole               -0.4015 Ry au,         -1.0205 Debye
        Dipole field         -0.0008 Ry au, 
 
        Potential amp.        0.0702 Ry
        Total length         46.3494 bohr
 

     total cpu time spent up to now is    50023.6 secs

     total energy              =   -3345.21073230 Ry
     estimated scf accuracy    <       0.00045480 Ry

     total magnetization       =     1.31 Bohr mag/cell
     absolute magnetization    =     1.89 Bohr mag/cell

     iteration #340     ecut=    36.75 Ry     beta= 0.05
     Davidson diagonalization with overlap
